/*--------------------------------*- C++ -*----------------------------------*\
| =========                 |                                                 |
| \\      /  F ield         | OpenFOAM: The Open Source CFD Toolbox           |
|  \\    /   O peration     | Version:  2312                                  |
|   \\  /    A nd           | Website:  www.openfoam.com                      |
|    \\/     M anipulation  |                                                 |
\*---------------------------------------------------------------------------*/
FoamFile
{
    version     2.0;
    format      ascii;
    arch        "LSB;label=32;scalar=64";
    class       volScalarField;
    location    "9";
    object      p;
}
// * * * * * * * * * * * * * * * * * * * * * * * * * * * * * * * * * * * * * //

dimensions      [0 2 -2 0 0 0 0];

internalField   nonuniform List<scalar> 
4000
(
26.554372
25.480178
25.189693
24.339523
24.088285
23.291785
23.016281
22.25271
21.949286
21.21307
20.884227
20.172041
19.820696
19.129684
18.758476
18.086128
17.697405
17.041504
16.63735
15.995929
15.578195
14.949507
14.51984
13.902333
13.462199
12.854487
12.405194
11.806041
11.348758
10.757057
10.292832
9.7075897
9.2373655
8.6576867
8.1823144
7.6073885
7.1276408
6.5567299
6.0733128
5.5057401
5.0193034
4.4544434
3.9655907
3.4028595
2.9121572
2.3510037
1.8589896
1.2988863
0.80607596
0.24650595
26.549389
25.478591
25.189833
24.339535
24.088275
23.291796
23.016271
22.25272
21.949277
21.213079
20.884219
20.172048
19.820689
19.129691
18.75847
18.086134
17.6974
17.041509
16.637345
15.995933
15.57819
14.949511
14.519837
13.902337
13.462196
12.85449
12.405191
11.806044
11.348755
10.757059
10.292829
9.7075921
9.2373632
8.6576889
8.1823123
7.6073905
7.1276389
6.5567317
6.073311
5.5057418
5.0193017
4.454445
3.9655891
3.402861
2.9121557
2.3510052
1.8589882
1.2988878
0.80607448
0.24650826
26.540757
25.477543
25.1901
24.339523
24.088284
23.291795
23.016272
22.252719
21.949278
21.213078
20.88422
20.172048
19.82069
19.12969
18.75847
18.086134
17.6974
17.041509
16.637345
15.995933
15.578191
14.949511
14.519837
13.902336
13.462196
12.85449
12.405191
11.806043
11.348755
10.757059
10.29283
9.7075918
9.2373635
8.6576886
8.1823126
7.6073903
7.1276392
6.5567315
6.0733112
5.5057416
5.0193019
4.4544448
3.9655893
3.4028608
2.9121559
2.351005
1.8589883
1.2988876
0.80607452
0.24650898
26.529263
25.476367
25.190385
24.33951
24.088297
23.291789
23.016278
22.252713
21.949283
21.213073
20.884224
20.172044
19.820693
19.129686
18.758474
18.086131
17.697403
17.041506
16.637348
15.99593
15.578193
14.949509
14.519839
13.902334
13.462198
12.854488
12.405193
11.806042
11.348757
10.757058
10.292831
9.7075905
9.2373647
8.6576875
8.1823137
7.6073892
7.1276402
6.5567305
6.0733122
5.5057407
5.0193028
4.4544439
3.9655901
3.40286
2.9121567
2.3510042
1.8589891
1.2988868
0.80607517
0.24650903
26.51994
25.475369
25.190636
24.339501
24.088311
23.291783
23.016283
22.252708
21.949287
21.213069
20.884228
20.17204
19.820697
19.129683
18.758477
18.086128
17.697406
17.041503
16.63735
15.995928
15.578195
14.949507
14.519841
13.902332
13.4622
12.854486
12.405194
11.80604
11.348758
10.757056
10.292832
9.7075894
9.2373658
8.6576864
8.1823147
7.6073883
7.1276411
6.5567296
6.073313
5.5057398
5.0193036
4.4544432
3.9655909
3.4028593
2.9121574
2.3510035
1.8589898
1.2988861
0.80607582
0.24650899
26.50889
25.474073
25.190812
24.339505
24.088328
23.291779
23.016286
22.252704
21.94929
21.213066
20.884231
20.172037
19.820699
19.129681
18.758479
18.086126
17.697408
17.041501
16.637352
15.995926
15.578197
14.949505
14.519842
13.902331
13.462201
12.854485
12.405196
11.806039
11.348759
10.757055
10.292833
9.7075885
9.2373667
8.6576856
8.1823155
7.6073875
7.1276418
6.5567289
6.0733137
5.5057392
5.0193042
4.4544426
3.9655915
3.4028587
2.912158
2.3510029
1.8589903
1.2988855
0.80607636
0.24650899
26.50071
25.473203
25.190913
24.339533
24.088348
23.291777
23.01629
22.252701
21.949293
21.213063
20.884233
20.172035
19.820702
19.129679
18.758481
18.086124
17.69741
17.0415
16.637354
15.995925
15.578198
14.949504
14.519844
13.90233
13.462202
12.854484
12.405197
11.806038
11.34876
10.757055
10.292834
9.7075877
9.2373674
8.6576849
8.1823161
7.6073869
7.1276424
6.5567283
6.0733142
5.5057386
5.0193048
4.454442
3.965592
3.4028582
2.9121584
2.3510025
1.8589908
1.298885
0.80607683
0.24650899
26.492176
25.471989
25.190872
24.339596
24.088373
23.291776
23.016292
22.252698
21.949295
21.213061
20.884235
20.172033
19.820704
19.129677
18.758483
18.086122
17.697411
17.041498
16.637355
15.995924
15.578199
14.949503
14.519845
13.902329
13.462203
12.854483
12.405197
11.806037
11.348761
10.757054
10.292835
9.707587
9.237368
8.6576843
8.1823167
7.6073863
7.127643
6.5567278
6.0733147
5.5057382
5.0193052
4.4544416
3.9655924
3.4028578
2.9121589
2.3510021
1.8589912
1.2988845
0.80607727
0.24650898
26.483316
25.471163
25.19076
24.339652
24.088391
23.291774
23.016295
22.252696
21.949297
21.213059
20.884237
20.172031
19.820705
19.129675
18.758484
18.086121
17.697412
17.041497
16.637356
15.995922
15.578201
14.949502
14.519846
13.902328
13.462204
12.854482
12.405198
11.806037
11.348762
10.757053
10.292835
9.7075864
9.2373686
8.6576838
8.1823172
7.6073858
7.1276434
6.5567274
6.0733152
5.5057377
5.0193056
4.4544412
3.9655928
3.4028574
2.9121592
2.3510017
1.8589916
1.2988841
0.80607769
0.24650896
26.476068
25.46995
25.190661
24.339622
24.088384
23.291767
23.016296
22.252693
21.949299
21.213057
20.884239
20.172029
19.820707
19.129674
18.758486
18.086119
17.697414
17.041496
16.637357
15.995921
15.578202
14.949501
14.519847
13.902327
13.462205
12.854482
12.405199
11.806036
11.348762
10.757053
10.292836
9.7075859
9.2373691
8.6576833
8.1823177
7.6073854
7.1276439
6.556727
6.0733156
5.5057373
5.019306
4.4544408
3.9655932
3.402857
2.9121596
2.3510013
1.8589919
1.2988838
0.80607808
0.24650892
26.466949
25.468822
25.190704
24.339543
24.088361
23.291757
23.016296
22.25269
21.949301
21.213055
20.88424
20.172028
19.820708
19.129672
18.758487
18.086118
17.697415
17.041495
16.637358
15.99592
15.578202
14.9495
14.519847
13.902326
13.462205
12.854481
12.405199
11.806035
11.348763
10.757052
10.292836
9.7075854
9.2373696
8.6576828
8.1823181
7.607385
7.1276443
6.5567266
6.0733159
5.505737
5.0193063
4.4544405
3.9655935
3.4028567
2.9121599
2.351001
1.8589922
1.2988834
0.80607845
0.24650887
26.460611
25.467368
25.190728
24.339497
24.08834
23.291748
23.016295
22.252688
21.949302
21.213053
20.884242
20.172026
19.82071
19.129671
18.758488
18.086117
17.697416
17.041494
16.637359
15.99592
15.578203
14.949499
14.519848
13.902326
13.462206
12.85448
12.4052
11.806035
11.348763
10.757052
10.292837
9.707585
9.23737
8.6576824
8.1823185
7.6073846
7.1276446
6.5567263
6.0733163
5.5057367
5.0193066
4.4544402
3.9655938
3.4028564
2.9121602
2.3510008
1.8589925
1.2988831
0.80607879
0.24650882
26.453042
25.466149
25.190618
24.339447
24.088315
23.291739
23.016295
22.252685
21.949303
21.213052
20.884243
20.172025
19.820711
19.12967
18.758489
18.086116
17.697417
17.041493
16.63736
15.995919
15.578204
14.949499
14.519849
13.902325
13.462206
12.85448
12.405201
11.806034
11.348764
10.757051
10.292837
9.7075846
9.2373704
8.6576821
8.1823188
7.6073843
7.1276449
6.556726
6.0733166
5.5057364
5.0193069
4.4544399
3.965594
3.4028562
2.9121604
2.3510005
1.8589928
1.2988829
0.80607912
0.24650876
26.44756
25.464926
25.190311
24.339364
24.088283
23.291728
23.016293
22.252683
21.949304
21.213051
20.884244
20.172024
19.820712
19.129669
18.75849
18.086115
17.697418
17.041492
16.637361
15.995918
15.578205
14.949498
14.519849
13.902325
13.462207
12.854479
12.405201
11.806034
11.348764
10.757051
10.292838
9.7075842
9.2373707
8.6576817
8.1823192
7.607384
7.1276452
6.5567257
6.0733168
5.5057361
5.0193072
4.4544397
3.9655943
3.402856
2.9121607
2.3510003
1.858993
1.2988826
0.80607943
0.24650869
26.44108
25.46372
25.189944
24.339274
24.08825
23.291716
23.016292
22.252681
21.949305
21.213049
20.884245
20.172023
19.820713
19.129668
18.758491
18.086114
17.697418
17.041491
16.637361
15.995917
15.578205
14.949497
14.51985
13.902324
13.462207
12.854479
12.405201
11.806034
11.348765
10.75705
10.292838
9.7075839
9.237371
8.6576814
8.1823194
7.6073837
7.1276455
6.5567254
6.0733171
5.5057359
5.0193074
4.4544395
3.9655945
3.4028557
2.9121609
2.3510001
1.8589932
1.2988824
0.80607973
0.24650863
26.436257
25.462426
25.189512
24.339186
24.088217
23.291704
23.01629
22.252679
21.949306
21.213048
20.884246
20.172022
19.820714
19.129667
18.758492
18.086114
17.697419
17.041491
16.637362
15.995917
15.578206
14.949497
14.51985
13.902324
13.462208
12.854478
12.405202
11.806033
11.348765
10.75705
10.292838
9.7075836
9.2373713
8.6576812
8.1823197
7.6073834
7.1276457
6.5567252
6.0733173
5.5057357
5.0193076
4.4544393
3.9655947
3.4028555
2.9121611
2.3509999
1.8589934
1.2988822
0.80608001
0.24650855
26.430766
25.461109
25.189087
24.339095
24.088183
23.291691
23.016286
22.252676
21.949307
21.213047
20.884247
20.172021
19.820714
19.129666
18.758492
18.086113
17.69742
17.04149
16.637363
15.995916
15.578206
14.949496
14.519851
13.902323
13.462208
12.854478
12.405202
11.806033
11.348765
10.75705
10.292839
9.7075833
9.2373716
8.6576809
8.18232
7.6073832
7.1276459
6.556725
6.0733175
5.5057355
5.0193078
4.4544391
3.9655949
3.4028554
2.9121613
2.3509997
1.8589935
1.298882
0.80608027
0.24650848
26.42665
25.45984
25.188672
24.338978
24.088141
23.291673
23.016282
22.252673
21.949307
21.213046
20.884248
20.17202
19.820715
19.129666
18.758493
18.086112
17.69742
17.04149
16.637363
15.995916
15.578207
14.949496
14.519851
13.902323
13.462209
12.854478
12.405203
11.806032
11.348766
10.757049
10.292839
9.707583
9.2373718
8.6576807
8.1823202
7.607383
7.1276461
6.5567248
6.0733177
5.5057353
5.019308
4.4544389
3.9655951
3.4028552
2.9121614
2.3509995
1.8589937
1.2988818
0.80608052
0.24650841
26.422129
25.458534
25.188331
24.338843
24.088089
23.291652
23.016275
22.252669
21.949306
21.213044
20.884248
20.172019
19.820716
19.129665
18.758494
18.086112
17.697421
17.041489
16.637364
15.995915
15.578207
14.949496
14.519852
13.902322
13.462209
12.854477
12.405203
11.806032
11.348766
10.757049
10.292839
9.7075828
9.2373721
8.6576805
8.1823204
7.6073828
7.1276463
6.5567246
6.0733179
5.5057351
5.0193082
4.4544387
3.9655952
3.402855
2.9121616
2.3509994
1.8589939
1.2988817
0.80608076
0.24650833
26.418686
25.457381
25.187981
24.338725
24.088037
23.291631
23.016268
22.252665
21.949306
21.213043
20.884249
20.172019
19.820716
19.129664
18.758494
18.086111
17.697421
17.041489
16.637364
15.995915
15.578208
14.949495
14.519852
13.902322
13.462209
12.854477
12.405203
11.806032
11.348766
10.757049
10.292839
9.7075826
9.2373723
8.6576803
8.1823206
7.6073826
7.1276465
6.5567244
6.073318
5.505735
5.0193083
4.4544386
3.9655954
3.4028549
2.9121617
2.3509992
1.858994
1.2988815
0.80608098
0.24650826
26.415038
25.456193
25.187627
24.338634
24.087996
23.291615
23.016263
22.252661
21.949306
21.213042
20.884249
20.172018
19.820717
19.129664
18.758495
18.086111
17.697422
17.041488
16.637364
15.995915
15.578208
14.949495
14.519852
13.902322
13.46221
12.854477
12.405203
11.806032
11.348766
10.757049
10.29284
9.7075824
9.2373725
8.6576801
8.1823208
7.6073824
7.1276467
6.5567243
6.0733182
5.5057348
5.0193085
4.4544384
3.9655955
3.4028548
2.9121618
2.3509991
1.8589941
1.2988814
0.8060812
0.24650819
26.412165
25.45524
25.187256
24.338546
24.087968
23.291608
23.01626
22.252659
21.949306
21.213041
20.88425
20.172017
19.820717
19.129663
18.758495
18.08611
17.697422
17.041488
16.637365
15.995914
15.578208
14.949494
14.519853
13.902321
13.46221
12.854477
12.405204
11.806031
11.348766
10.757048
10.29284
9.7075822
9.2373727
8.6576799
8.1823209
7.6073823
7.1276468
6.5567241
6.0733183
5.5057347
5.0193086
4.4544383
3.9655956
3.4028546
2.912162
2.350999
1.8589942
1.2988813
0.8060814
0.24650812
26.409256
25.454213
25.186918
24.338454
24.087946
23.291607
23.01626
22.252658
21.949306
21.21304
20.88425
20.172017
19.820718
19.129663
18.758496
18.08611
17.697423
17.041487
16.637365
15.995914
15.578209
14.949494
14.519853
13.902321
13.46221
12.854476
12.405204
11.806031
11.348767
10.757048
10.29284
9.707582
9.2373728
8.6576797
8.1823211
7.6073821
7.127647
6.556724
6.0733185
5.5057346
5.0193087
4.4544382
3.9655957
3.4028545
2.9121621
2.3509989
1.8589943
1.2988812
0.80608158
0.24650805
26.40685
25.453461
25.186599
24.338364
24.087924
23.291611
23.01626
22.252658
21.949306
21.213039
20.884251
20.172016
19.820718
19.129662
18.758496
18.086109
17.697423
17.041487
16.637365
15.995914
15.578209
14.949494
14.519853
13.902321
13.46221
12.854476
12.405204
11.806031
11.348767
10.757048
10.29284
9.7075819
9.237373
8.6576796
8.1823212
7.607382
7.1276471
6.5567239
6.0733186
5.5057344
5.0193088
4.4544381
3.9655958
3.4028544
2.9121622
2.3509988
1.8589944
1.2988811
0.80608176
0.24650798
26.404577
25.452594
25.186318
24.338285
24.0879
23.291618
23.016261
22.252657
21.949307
21.213039
20.884251
20.172015
19.820719
19.129662
18.758497
18.086109
17.697423
17.041487
16.637366
15.995913
15.578209
14.949494
14.519853
13.902321
13.462211
12.854476
12.405204
11.806031
11.348767
10.757048
10.29284
9.7075817
9.2373731
8.6576795
8.1823213
7.6073819
7.1276472
6.5567237
6.0733187
5.5057343
5.0193089
4.454438
3.9655959
3.4028543
2.9121623
2.3509987
1.8589945
1.298881
0.80608192
0.24650792
26.402483
25.452025
25.186058
24.338216
24.087874
23.291625
23.016262
22.252657
21.949307
21.213038
20.884252
20.172015
19.820719
19.129662
18.758497
18.086109
17.697424
17.041486
16.637366
15.995913
15.578209
14.949493
14.519854
13.90232
13.462211
12.854476
12.405204
11.806031
11.348767
10.757048
10.29284
9.7075816
9.2373733
8.6576793
8.1823215
7.6073818
7.1276473
6.5567236
6.0733188
5.5057342
5.019309
4.4544379
3.965596
3.4028542
2.9121624
2.3509986
1.8589946
1.2988809
0.80608208
0.24650786
26.400849
25.451319
25.185829
24.338158
24.08785
23.291632
23.016264
22.252657
21.949308
21.213038
20.884252
20.172015
19.820719
19.129661
18.758497
18.086108
17.697424
17.041486
16.637366
15.995913
15.57821
14.949493
14.519854
13.90232
13.462211
12.854476
12.405205
11.80603
11.348767
10.757048
10.292841
9.7075814
9.2373734
8.6576792
8.1823216
7.6073817
7.1276474
6.5567235
6.0733189
5.5057341
5.0193091
4.4544378
3.9655961
3.4028541
2.9121624
2.3509985
1.8589947
1.2988808
0.80608222
0.2465078
26.398935
25.45088
25.185623
24.33811
24.087828
23.291637
23.016267
22.252658
21.949309
21.213038
20.884252
20.172014
19.82072
19.129661
18.758497
18.086108
17.697424
17.041486
16.637367
15.995912
15.57821
14.949493
14.519854
13.90232
13.462211
12.854475
12.405205
11.80603
11.348768
10.757047
10.292841
9.7075813
9.2373735
8.6576791
8.1823217
7.6073816
7.1276475
6.5567234
6.073319
5.5057341
5.0193092
4.4544377
3.9655962
3.4028541
2.9121625
2.3509984
1.8589947
1.2988808
0.80608235
0.24650774
26.397774
25.45033
25.185448
24.33807
24.087811
23.291639
23.016269
22.25266
21.94931
21.213037
20.884253
20.172014
19.82072
19.12966
18.758498
18.086108
17.697424
17.041486
16.637367
15.995912
15.57821
14.949493
14.519854
13.90232
13.462211
12.854475
12.405205
11.80603
11.348768
10.757047
10.292841
9.7075812
9.2373736
8.657679
8.1823218
7.6073815
7.1276476
6.5567234
6.073319
5.505734
5.0193093
4.4544377
3.9655963
3.402854
2.9121626
2.3509984
1.8589948
1.2988807
0.80608246
0.24650769
26.396111
25.450005
25.185298
24.338039
24.087798
23.29164
23.016271
22.252662
21.949311
21.213037
20.884253
20.172013
19.82072
19.12966
18.758498
18.086108
17.697425
17.041485
16.637367
15.995912
15.57821
14.949493
14.519854
13.90232
13.462211
12.854475
12.405205
11.80603
11.348768
10.757047
10.292841
9.7075811
9.2373737
8.6576789
8.1823218
7.6073814
7.1276477
6.5567233
6.0733191
5.5057339
5.0193093
4.4544376
3.9655963
3.4028539
2.9121626
2.3509983
1.8589949
1.2988807
0.80608257
0.24650765
26.395207
25.449596
25.185181
24.338015
24.087789
23.291641
23.016272
22.252665
21.949312
21.213037
20.884253
20.172013
19.82072
19.12966
18.758498
18.086107
17.697425
17.041485
16.637367
15.995912
15.57821
14.949492
14.519854
13.90232
13.462212
12.854475
12.405205
11.80603
11.348768
10.757047
10.292841
9.707581
9.2373738
8.6576789
8.1823219
7.6073813
7.1276477
6.5567232
6.0733192
5.5057339
5.0193094
4.4544375
3.9655964
3.4028539
2.9121627
2.3509982
1.8589949
1.2988806
0.80608266
0.24650761
26.393912
25.449391
25.185086
24.337999
24.087783
23.291642
23.016273
22.252668
21.949313
21.213037
20.884254
20.172013
19.820721
19.12966
18.758498
18.086107
17.697425
17.041485
16.637367
15.995912
15.57821
14.949492
14.519854
13.90232
13.462212
12.854475
12.405205
11.80603
11.348768
10.757047
10.292841
9.707581
9.2373738
8.6576788
8.182322
7.6073813
7.1276478
6.5567232
6.0733192
5.5057338
5.0193094
4.4544375
3.9655964
3.4028538
2.9121627
2.3509982
1.858995
1.2988806
0.80608273
0.24650757
26.393258
25.449094
25.18502
24.33799
24.08778
23.291644
23.016272
22.252671
21.949314
21.213037
20.884254
20.172013
19.820721
19.129659
18.758498
18.086107
17.697425
17.041485
16.637367
15.995912
15.578211
14.949492
14.519855
13.902319
13.462212
12.854475
12.405205
11.80603
11.348768
10.757047
10.292841
9.7075809
9.2373739
8.6576787
8.182322
7.6073812
7.1276479
6.5567231
6.0733193
5.5057338
5.0193095
4.4544374
3.9655965
3.4028538
2.9121628
2.3509982
1.858995
1.2988806
0.8060828
0.24650754
26.392276
25.44898
25.184971
24.337987
24.087779
23.291647
23.016272
22.252674
21.949315
21.213037
20.884254
20.172012
19.820721
19.129659
18.758499
18.086107
17.697425
17.041485
16.637368
15.995912
15.578211
14.949492
14.519855
13.902319
13.462212
12.854475
12.405205
11.80603
11.348768
10.757047
10.292841
9.7075808
9.2373739
8.6576787
8.1823221
7.6073812
7.1276479
6.5567231
6.0733193
5.5057337
5.0193095
4.4544374
3.9655965
3.4028538
2.9121628
2.3509981
1.858995
1.2988806
0.80608284
0.24650752
26.39187
25.448761
25.18494
24.337987
24.08778
23.291649
23.016271
22.252677
21.949316
21.213037
20.884254
20.172012
19.820721
19.129659
18.758499
18.086107
17.697425
17.041485
16.637368
15.995911
15.578211
14.949492
14.519855
13.902319
13.462212
12.854475
12.405205
11.80603
11.348768
10.757047
10.292841
9.7075808
9.237374
8.6576786
8.1823221
7.6073811
7.1276479
6.556723
6.0733194
5.5057337
5.0193096
4.4544374
3.9655965
3.4028537
2.9121628
2.3509981
1.858995
1.2988805
0.80608287
0.2465075
26.391151
25.448708
25.18492
24.33799
24.087782
23.291652
23.016269
22.252679
21.949317
21.213038
20.884254
20.172012
19.820721
19.129659
18.758499
18.086107
17.697425
17.041485
16.637368
15.995911
15.578211
14.949492
14.519855
13.902319
13.462212
12.854475
12.405206
11.80603
11.348768
10.757047
10.292841
9.7075808
9.237374
8.6576786
8.1823222
7.6073811
7.127648
6.556723
6.0733194
5.5057337
5.0193096
4.4544373
3.9655966
3.4028537
2.9121629
2.3509981
1.8589951
1.2988805
0.80608287
0.2465075
26.39099
25.448537
25.18491
24.337994
24.087784
23.291654
23.016269
22.252681
21.949318
21.213038
20.884255
20.172012
19.820721
19.129659
18.758499
18.086106
17.697426
17.041485
16.637368
15.995911
15.578211
14.949492
14.519855
13.902319
13.462212
12.854475
12.405206
11.80603
11.348768
10.757047
10.292841
9.7075807
9.2373741
8.6576786
8.1823222
7.6073811
7.127648
6.556723
6.0733194
5.5057336
5.0193096
4.4544373
3.9655966
3.4028537
2.9121629
2.3509981
1.8589951
1.2988805
0.80608285
0.2465075
26.390521
25.448514
25.184901
24.337996
24.087785
23.291656
23.016268
22.252681
21.94932
21.213038
20.884255
20.172012
19.820721
19.129659
18.758499
18.086106
17.697426
17.041484
16.637368
15.995911
15.578211
14.949492
14.519855
13.902319
13.462212
12.854475
12.405206
11.80603
11.348768
10.757047
10.292841
9.7075807
9.2373741
8.6576785
8.1823222
7.6073811
7.127648
6.556723
6.0733194
5.5057336
5.0193096
4.4544373
3.9655966
3.4028537
2.9121629
2.3509981
1.8589951
1.2988806
0.80608281
0.24650752
26.390603
25.448374
25.184894
24.337997
24.087787
23.291657
23.016268
22.252681
21.949321
21.213038
20.884255
20.172012
19.820721
19.129659
18.758499
18.086106
17.697426
17.041484
16.637368
15.995911
15.578211
14.949492
14.519855
13.902319
13.462212
12.854475
12.405206
11.80603
11.348768
10.757047
10.292841
9.7075807
9.2373741
8.6576785
8.1823222
7.607381
7.127648
6.556723
6.0733194
5.5057336
5.0193096
4.4544373
3.9655966
3.4028537
2.9121629
2.3509981
1.858995
1.2988806
0.80608276
0.24650753
26.390337
25.448398
25.184889
24.337997
24.087787
23.291658
23.016268
22.25268
21.949322
21.213038
20.884255
20.172012
19.820721
19.129659
18.758499
18.086106
17.697426
17.041484
16.637368
15.995911
15.578211
14.949492
14.519855
13.902319
13.462212
12.854475
12.405206
11.80603
11.348768
10.757047
10.292841
9.7075807
9.2373741
8.6576785
8.1823222
7.6073811
7.127648
6.556723
6.0733194
5.5057336
5.0193096
4.4544373
3.9655966
3.4028537
2.9121628
2.3509981
1.858995
1.2988806
0.80608273
0.24650755
26.390549
25.448336
25.18489
24.337997
24.087787
23.291658
23.016268
22.25268
21.949322
21.213038
20.884255
20.172012
19.820721
19.129659
18.758499
18.086106
17.697426
17.041484
16.637368
15.995911
15.578211
14.949492
14.519855
13.902319
13.462212
12.854475
12.405206
11.80603
11.348768
10.757047
10.292841
9.7075807
9.2373741
8.6576785
8.1823222
7.6073811
7.127648
6.556723
6.0733194
5.5057336
5.0193096
4.4544373
3.9655966
3.4028537
2.9121628
2.3509981
1.858995
1.2988806
0.80608273
0.24650755
26.390374
25.44845
25.184896
24.337997
24.087786
23.291657
23.016268
22.252681
21.949321
21.213038
20.884255
20.172012
19.820721
19.129659
18.758499
18.086106
17.697426
17.041484
16.637368
15.995911
15.578211
14.949492
14.519855
13.902319
13.462212
12.854475
12.405206
11.80603
11.348768
10.757047
10.292841
9.7075807
9.2373741
8.6576785
8.1823222
7.607381
7.127648
6.556723
6.0733194
5.5057336
5.0193096
4.4544373
3.9655966
3.4028537
2.9121629
2.3509981
1.858995
1.2988806
0.80608276
0.24650753
26.390718
25.448465
25.184905
24.337996
24.087785
23.291656
23.016268
22.252681
21.94932
21.213038
20.884255
20.172012
19.820721
19.129659
18.758499
18.086106
17.697426
17.041484
16.637368
15.995911
15.578211
14.949492
14.519855
13.902319
13.462212
12.854475
12.405206
11.80603
11.348768
10.757047
10.292841
9.7075807
9.2373741
8.6576785
8.1823222
7.6073811
7.127648
6.556723
6.0733194
5.5057336
5.0193096
4.4544373
3.9655966
3.4028537
2.9121629
2.3509981
1.8589951
1.2988806
0.80608281
0.24650752
26.390742
25.44863
25.184914
24.337994
24.087784
23.291654
23.016269
22.252681
21.949318
21.213038
20.884255
20.172012
19.820721
19.129659
18.758499
18.086106
17.697426
17.041485
16.637368
15.995911
15.578211
14.949492
14.519855
13.902319
13.462212
12.854475
12.405206
11.80603
11.348768
10.757047
10.292841
9.7075807
9.2373741
8.6576786
8.1823222
7.6073811
7.127648
6.556723
6.0733194
5.5057336
5.0193096
4.4544373
3.9655966
3.4028537
2.9121629
2.3509981
1.8589951
1.2988805
0.80608285
0.2465075
26.391332
25.448674
25.184927
24.33799
24.087782
23.291652
23.016269
22.252679
21.949317
21.213038
20.884254
20.172012
19.820721
19.129659
18.758499
18.086107
17.697425
17.041485
16.637368
15.995911
15.578211
14.949492
14.519855
13.902319
13.462212
12.854475
12.405206
11.80603
11.348768
10.757047
10.292841
9.7075808
9.237374
8.6576786
8.1823222
7.6073811
7.127648
6.556723
6.0733194
5.5057337
5.0193096
4.4544373
3.9655966
3.4028537
2.9121629
2.3509981
1.8589951
1.2988805
0.80608287
0.2465075
26.3916
25.448872
25.184947
24.337987
24.08778
23.291649
23.016271
22.252677
21.949316
21.213037
20.884254
20.172012
19.820721
19.129659
18.758499
18.086107
17.697425
17.041485
16.637368
15.995911
15.578211
14.949492
14.519855
13.902319
13.462212
12.854475
12.405205
11.80603
11.348768
10.757047
10.292841
9.7075808
9.237374
8.6576786
8.1823221
7.6073811
7.1276479
6.556723
6.0733194
5.5057337
5.0193096
4.4544374
3.9655965
3.4028537
2.9121628
2.3509981
1.858995
1.2988805
0.80608287
0.2465075
26.392447
25.448961
25.184981
24.337987
24.087779
23.291647
23.016272
22.252674
21.949315
21.213037
20.884254
20.172012
19.820721
19.129659
18.758499
18.086107
17.697425
17.041485
16.637368
15.995912
15.578211
14.949492
14.519855
13.902319
13.462212
12.854475
12.405205
11.80603
11.348768
10.757047
10.292841
9.7075808
9.2373739
8.6576787
8.1823221
7.6073812
7.1276479
6.5567231
6.0733193
5.5057337
5.0193095
4.4544374
3.9655965
3.4028538
2.9121628
2.3509981
1.858995
1.2988806
0.80608284
0.24650752
26.392958
25.449222
25.18503
24.337991
24.08778
23.291644
23.016273
22.252671
21.949314
21.213037
20.884254
20.172013
19.820721
19.129659
18.758498
18.086107
17.697425
17.041485
16.637367
15.995912
15.578211
14.949492
14.519855
13.902319
13.462212
12.854475
12.405205
11.80603
11.348768
10.757047
10.292841
9.7075809
9.2373739
8.6576787
8.182322
7.6073812
7.1276479
6.5567231
6.0733193
5.5057338
5.0193095
4.4544374
3.9655965
3.4028538
2.9121628
2.3509982
1.858995
1.2988806
0.8060828
0.24650754
26.394096
25.449391
25.185101
24.338001
24.087783
23.291643
23.016273
22.252668
21.949313
21.213037
20.884254
20.172013
19.820721
19.12966
18.758498
18.086107
17.697425
17.041485
16.637367
15.995912
15.57821
14.949492
14.519854
13.90232
13.462212
12.854475
12.405205
11.80603
11.348768
10.757047
10.292841
9.707581
9.2373738
8.6576788
8.182322
7.6073813
7.1276478
6.5567232
6.0733192
5.5057338
5.0193094
4.4544375
3.9655964
3.4028538
2.9121627
2.3509982
1.858995
1.2988806
0.80608273
0.24650757
26.394856
25.449747
25.185195
24.338016
24.087789
23.291641
23.016273
22.252665
21.949312
21.213037
20.884253
20.172013
19.82072
19.12966
18.758498
18.086107
17.697425
17.041485
16.637367
15.995912
15.57821
14.949492
14.519854
13.90232
13.462212
12.854475
12.405205
11.80603
11.348768
10.757047
10.292841
9.707581
9.2373738
8.6576789
8.1823219
7.6073813
7.1276477
6.5567232
6.0733192
5.5057339
5.0193094
4.4544375
3.9655964
3.4028539
2.9121627
2.3509982
1.8589949
1.2988806
0.80608266
0.24650761
26.396326
25.450022
25.185317
24.33804
24.087798
23.29164
23.016271
22.252662
21.949311
21.213037
20.884253
20.172013
19.82072
19.12966
18.758498
18.086108
17.697425
17.041485
16.637367
15.995912
15.57821
14.949493
14.519854
13.90232
13.462211
12.854475
12.405205
11.80603
11.348768
10.757047
10.292841
9.7075811
9.2373737
8.6576789
8.1823218
7.6073814
7.1276477
6.5567233
6.0733191
5.5057339
5.0193093
4.4544376
3.9655963
3.4028539
2.9121626
2.3509983
1.8589949
1.2988807
0.80608257
0.24650765
26.397347
25.450506
25.185466
24.338072
24.087812
23.291639
23.01627
22.25266
21.94931
21.213037
20.884253
20.172014
19.82072
19.12966
18.758498
18.086108
17.697424
17.041486
16.637367
15.995912
15.57821
14.949493
14.519854
13.90232
13.462211
12.854475
12.405205
11.80603
11.348768
10.757047
10.292841
9.7075812
9.2373736
8.657679
8.1823218
7.6073815
7.1276476
6.5567234
6.073319
5.505734
5.0193093
4.4544377
3.9655963
3.402854
2.9121626
2.3509984
1.8589948
1.2988807
0.80608246
0.24650769
26.399086
25.450889
25.185644
24.338112
24.087829
23.291637
23.016267
22.252658
21.949309
21.213038
20.884252
20.172014
19.82072
19.129661
18.758497
18.086108
17.697424
17.041486
16.637367
15.995912
15.57821
14.949493
14.519854
13.90232
13.462211
12.854475
12.405205
11.80603
11.348768
10.757047
10.292841
9.7075813
9.2373735
8.6576791
8.1823217
7.6073816
7.1276475
6.5567234
6.073319
5.5057341
5.0193092
4.4544377
3.9655962
3.4028541
2.9121625
2.3509984
1.8589947
1.2988808
0.80608235
0.24650774
26.400511
25.451525
25.185849
24.33816
24.087851
23.291632
23.016264
22.252657
21.949308
21.213038
20.884252
20.172015
19.820719
19.129661
18.758497
18.086108
17.697424
17.041486
16.637366
15.995913
15.57821
14.949493
14.519854
13.90232
13.462211
12.854476
12.405205
11.80603
11.348767
10.757048
10.292841
9.7075814
9.2373734
8.6576792
8.1823216
7.6073817
7.1276474
6.5567235
6.0733189
5.5057341
5.0193091
4.4544378
3.9655961
3.4028541
2.9121624
2.3509985
1.8589947
1.2988808
0.80608222
0.2465078
26.402447
25.452028
25.186081
24.338218
24.087875
23.291625
23.016262
22.252657
21.949307
21.213038
20.884252
20.172015
19.820719
19.129662
18.758497
18.086109
17.697424
17.041486
16.637366
15.995913
15.578209
14.949493
14.519854
13.90232
13.462211
12.854476
12.405204
11.806031
11.348767
10.757048
10.29284
9.7075816
9.2373733
8.6576793
8.1823215
7.6073818
7.1276473
6.5567236
6.0733188
5.5057342
5.019309
4.4544379
3.965596
3.4028542
2.9121624
2.3509986
1.8589946
1.2988809
0.80608208
0.24650786
26.40443
25.452825
25.186339
24.338286
24.0879
23.291618
23.016261
22.252657
21.949307
21.213039
20.884251
20.172015
19.820719
19.129662
18.758497
18.086109
17.697423
17.041487
16.637366
15.995913
15.578209
14.949494
14.519853
13.902321
13.462211
12.854476
12.405204
11.806031
11.348767
10.757048
10.29284
9.7075817
9.2373731
8.6576795
8.1823213
7.6073819
7.1276472
6.5567237
6.0733187
5.5057343
5.0193089
4.454438
3.9655959
3.4028543
2.9121623
2.3509987
1.8589945
1.298881
0.80608192
0.24650792
26.406635
25.453487
25.186627
24.338367
24.087924
23.291612
23.01626
22.252658
21.949306
21.213039
20.884251
20.172016
19.820718
19.129662
18.758496
18.086109
17.697423
17.041487
16.637365
15.995914
15.578209
14.949494
14.519853
13.902321
13.46221
12.854476
12.405204
11.806031
11.348767
10.757048
10.29284
9.7075819
9.237373
8.6576796
8.1823212
7.607382
7.1276471
6.5567239
6.0733186
5.5057344
5.0193088
4.4544381
3.9655958
3.4028544
2.9121622
2.3509988
1.8589944
1.2988811
0.80608176
0.24650798
26.409214
25.454446
25.186939
24.338456
24.087946
23.291608
23.01626
22.252658
21.949306
21.21304
20.88425
20.172017
19.820718
19.129663
18.758496
18.08611
17.697423
17.041487
16.637365
15.995914
15.578209
14.949494
14.519853
13.902321
13.46221
12.854476
12.405204
11.806031
11.348767
10.757048
10.29284
9.707582
9.2373728
8.6576797
8.1823211
7.6073821
7.127647
6.556724
6.0733185
5.5057346
5.0193087
4.4544382
3.9655957
3.4028545
2.9121621
2.3509989
1.8589943
1.2988812
0.80608158
0.24650805
26.411829
25.4553
25.187288
24.338548
24.087968
23.291608
23.01626
22.252659
21.949306
21.213041
20.88425
20.172017
19.820717
19.129663
18.758495
18.08611
17.697422
17.041488
16.637365
15.995914
15.578208
14.949494
14.519853
13.902321
13.46221
12.854477
12.405204
11.806031
11.348766
10.757048
10.29284
9.7075822
9.2373727
8.6576799