/*--------------------------------*- C++ -*----------------------------------*\
| =========                 |                                                 |
| \\      /  F ield         | OpenFOAM: The Open Source CFD Toolbox           |
|  \\    /   O peration     | Version:  2312                                  |
|   \\  /    A nd           | Website:  www.openfoam.com                      |
|    \\/     M anipulation  |                                                 |
\*---------------------------------------------------------------------------*/
FoamFile
{
    version     2.0;
    format      ascii;
    arch        "LSB;label=32;scalar=64";
    class       surfaceScalarField;
    location    "9";
    object      phi;
}
// * * * * * * * * * * * * * * * * * * * * * * * * * * * * * * * * * * * * * //

dimensions      [0 3 -1 0 0 0 0];

oriented        oriented;

internalField   nonuniform List<scalar> 
7870
(
1.0171223e-10
2.3560378e-09
1.0153377e-10
1.7846062e-13
9.4554666e-11
6.9791044e-12
9.3960365e-11
5.9430386e-13
9.5089154e-11
-1.1287892e-12
9.3655447e-11
1.4337071e-12
9.4990945e-11
-1.3354978e-12
9.3710497e-11
1.2804478e-12
9.4919279e-11
-1.2087817e-12
9.3778228e-11
1.1410512e-12
9.4851755e-11
-1.0735274e-12
9.3840264e-11
1.011491e-12
9.4792058e-11
-9.5179314e-13
9.3895645e-11
8.9641215e-13
9.4739607e-11
-8.4396176e-13
9.3944649e-11
7.9495857e-13
9.4693463e-11
-7.4881425e-13
9.3987864e-11
7.0559862e-13
9.4652856e-11
-6.6499162e-13
9.4025905e-11
6.2695148e-13
9.4617151e-11
-5.9124614e-13
9.4059333e-11
5.5781764e-13
9.4585802e-11
-5.2646889e-13
9.4088653e-11
4.9714937e-13
9.4558335e-11
-4.6968238e-13
9.4114306e-11
4.4402859e-13
9.4534334e-11
-4.2002792e-13
9.4136683e-11
3.9765099e-13
9.4513437e-11
-3.7675328e-13
9.4156123e-11
3.573133e-13
9.4495325e-11
-3.3920164e-13
9.4172922e-11
3.2240275e-13
9.4479724e-11
-3.0680195e-13
9.4187336e-11
2.9238808e-13
9.4466397e-11
-2.7906068e-13
9.4199585e-11
2.6681175e-13
9.4455139e-11
-2.5555455e-13
9.4209856e-11
2.4528325e-13
9.4445781e-11
-2.3592433e-13
9.4218307e-11
2.2747335e-13
9.4438177e-11
-2.1986965e-13
9.4225068e-11
2.1310922e-13
9.4432211e-11
-2.0714333e-13
9.4230235e-11
2.0197557e-13
9.4427773e-11
-1.9753766e-13
9.4233881e-11
1.9389242e-13
9.4425037e-11
-1.9115641e-13
9.4237711e-11
1.8732611e-13
9.4430779e-11
-1.9306847e-13
1.7959778e-13
2.7850932e-10
4.5352785e-09
2.9244399e-10
-1.375621e-11
2.7444644e-10
2.4976655e-11
2.7367986e-10
1.3608935e-12
2.7494275e-10
-2.3916812e-12
2.7288329e-10
3.4931604e-12
2.7477292e-10
-3.2251244e-12
2.7294182e-10
3.111552e-12
2.7467896e-10
-2.9459274e-12
2.7303673e-10
2.7832808e-12
2.7458163e-10
-2.6184265e-12
2.7312495e-10
2.4681717e-12
2.7449523e-10
-2.3220725e-12
2.7320442e-10
2.187221e-12
2.7441961e-10
-2.0591457e-12
2.7327497e-10
1.9395945e-12
2.7435319e-10
-1.8270319e-12
2.7333725e-10
1.7215353e-12
2.7429477e-10
-1.6225116e-12
2.7339209e-10
1.5296335e-12
2.7424341e-10
-1.4425689e-12
2.7344028e-10
1.3609489e-12
2.7419832e-10
-1.284507e-12
2.7348255e-10
1.2129211e-12
2.7415881e-10
-1.1459427e-12
2.7351953e-10
1.0833089e-12
2.7412428e-10
-1.0247813e-12
2.7355178e-10
9.7014941e-13
2.7409422e-10
-9.1918673e-13
2.735798e-10
8.7172611e-13
2.7406816e-10
-8.2755595e-13
2.7360402e-10
7.8654353e-13
2.7404571e-10
-7.4849508e-13
2.7362479e-10
7.1330505e-13
2.7402653e-10
-6.8079941e-13
2.7364245e-10
6.5089396e-13
2.7401033e-10
-6.2343568e-13
2.7365726e-10
5.9835708e-13
2.7399686e-10
-5.7552689e-13
2.7366944e-10
5.5489052e-13
2.7398591e-10
-5.3633944e-13
2.7367919e-10
5.1982741e-13
2.7397732e-10
-5.0526864e-13
2.7368665e-10
4.9264479e-13
2.739709e-10
-4.8178375e-13
2.7369184e-10
4.7294609e-13
2.7396684e-10
-4.6615618e-13
2.7369803e-10
4.5613762e-13
2.7398151e-10
-4.7654616e-13
4.3648981e-13
4.5005767e-10
6.5429708e-09
4.7646889e-10
-4.0167422e-11
4.492975e-10
5.2148041e-11
4.4911299e-10
1.5454134e-12
4.4976575e-10
-3.0444463e-12
4.4786236e-10
5.3965497e-12
4.4960046e-10
-4.9632217e-12
4.4789528e-10
4.8167272e-12
4.495278e-10
-4.5784471e-12
4.4798152e-10
4.329569e-12
4.4943614e-10
-4.0730477e-12
4.4806317e-10
3.8411392e-12
4.4935415e-10
-3.613048e-12
4.481377e-10
3.403667e-12
4.4928275e-10
-3.2041943e-12
4.4820416e-10
3.0181795e-12
4.4922019e-10
-2.8430587e-12
4.4826292e-10
2.6788037e-12
4.4916521e-10
-2.5247979e-12
4.4831468e-10
2.3801648e-12
4.4911688e-10
-2.2447676e-12
4.4836016e-10
2.117664e-12
4.4907444e-10
-1.998785e-12
4.4840005e-10
1.8873108e-12
4.4903725e-10
-1.7831453e-12
4.4843495e-10
1.6856153e-12
4.4900475e-10
-1.5945886e-12
4.4846538e-10
1.5095216e-12
4.4897645e-10
-1.4302571e-12
4.4849182e-10
1.3563581e-12
4.4895192e-10
-1.287655e-12
4.4851466e-10
1.2237968e-12
4.4893078e-10
-1.1646123e-12
4.4853427e-10
1.1098193e-12
4.4891272e-10
-1.0592534e-12
4.4855093e-10
1.0126871e-12
4.4889746e-10
-9.6996937e-13
4.485649e-10
9.3091632e-13
4.4888477e-10
-8.9539449e-13
4.4857641e-10
8.6325466e-13
4.4887445e-10
-8.3438558e-13
4.4858562e-10
8.0866177e-13
4.4886635e-10
-7.8599795e-13
4.4859267e-10
7.6632636e-13
4.4886025e-10
-7.4936308e-13
4.485975e-10
7.3569024e-13
4.4885631e-10
-7.2496141e-13
4.4860442e-10
7.0802241e-13
4.4887886e-10
-7.5098439e-13
6.7666426e-13
6.1249626e-10
8.3882245e-09
6.5420017e-10
-8.1871329e-11
6.1958261e-10
8.6765603e-11
6.1983531e-10
1.2927203e-12
6.1995003e-10
-3.1591683e-12
6.1822608e-10
7.1204986e-12
6.1981957e-10
-6.5567081e-12
6.1824652e-10
6.3897763e-12
6.1977234e-10
-6.104262e-12
6.1832544e-10
5.7764691e-12
6.1968677e-10
-5.4343846e-12
6.1840054e-10
5.1273768e-12
6.1960939e-10
-4.8219025e-12
6.1846998e-10
4.5430798e-12
6.1954237e-10
-4.2765818e-12
6.1853219e-10
4.028352e-12
6.1948378e-10
-3.7946475e-12
6.1858727e-10
3.5753113e-12
6.1943233e-10
-3.3698545e-12
6.1863581e-10
3.1766883e-12
6.1938711e-10
-2.9960689e-12
6.1867846e-10
2.8263133e-12
6.193474e-10
-2.6677264e-12
6.1871586e-10
2.5188504e-12
6.193126e-10
-2.3798863e-12
6.1874858e-10
2.2496389e-12
6.1928219e-10
-2.1281973e-12
6.1877711e-10
2.0145981e-12
6.192557e-10
-1.9088438e-12
6.1880189e-10
1.8101609e-12
6.1923273e-10
-1.7184929e-12
6.1882331e-10
1.633219e-12
6.1921294e-10
-1.5542468e-12
6.1884169e-10
1.4810775e-12
6.1919603e-10
-1.4136007e-12
6.1885731e-10
1.3514151e-12
6.1918174e-10
-1.294406e-12
6.1887041e-10
1.2422497e-12
6.1916985e-10
-1.194838e-12
6.188812e-10
1.1519082e-12
6.1916018e-10
-1.1133682e-12
6.1888985e-10
1.0789973e-12
6.1915258e-10
-1.0487298e-12
6.1889647e-10
1.0224348e-12
6.1914681e-10
-9.9970226e-13
6.1890094e-10
9.815574e-13
6.1914291e-10
-9.6693398e-13
6.1890818e-10
9.4275355e-13
6.1917145e-10
-1.0142483e-12
9.0044458e-13
7.7597554e-10
1.0069999e-08
8.2542264e-10
-1.3131842e-10
7.8513492e-10
1.2705332e-10
7.8583862e-10
5.8903058e-13
7.854932e-10
-2.8137453e-12
7.83975e-10
8.6386962e-12
7.8543013e-10
-8.0118383e-12
7.8399509e-10
7.824815e-12
7.8541226e-10
-7.5214342e-12
7.8406806e-10
7.1206747e-12
7.8533329e-10
-6.6996149e-12
7.8413666e-10
6.3240059e-12
7.8526074e-10
-5.9459832e-12
7.842009e-10
5.6029191e-12
7.8519825e-10
-5.2739324e-12
7.8425874e-10
4.9678679e-12
7.8514378e-10
-4.6796875e-12
7.8431002e-10
4.4090718e-12
7.8509597e-10
-4.1558095e-12
7.8435521e-10
3.9174441e-12
7.8505396e-10
-3.6948134e-12
7.8439494e-10
3.4853357e-12
7.8501707e-10
-3.2898592e-12
7.8442977e-10
3.1061545e-12
7.8498474e-10
-2.9348587e-12
7.8446023e-10
2.7741482e-12
7.8495648e-10
-2.6244452e-12
7.8448679e-10
2.4842824e-12
7.8493186e-10
-2.3539111e-12
7.8450986e-10
2.2321561e-12
7.8491052e-10
-2.1191444e-12
7.845298e-10
2.0139348e-12
7.8489212e-10
-1.9165695e-12
7.8454691e-10
1.8262939e-12
7.848764e-10
-1.7430959e-12
7.8456145e-10
1.6663694e-12
7.8486311e-10
-1.5960721e-12
7.8457365e-10
1.5317156e-12
7.8485205e-10
-1.4732455e-12
7.845837e-10
1.4202662e-12
7.8484306e-10
-1.3727277e-12
7.8459176e-10
1.3302969e-12
7.8483597e-10
-1.2929479e-12
7.8459794e-10
1.2604705e-12
7.8483056e-10
-1.2323228e-12
7.8460204e-10
1.2100747e-12
7.8482669e-10
-1.1915845e-12
7.8460934e-10
1.1601059e-12
7.8485964e-10
-1.2645506e-12
1.1067861e-12
9.229685e-10
1.160478e-08
9.8972031e-10
-1.9807023e-10
9.4610905e-10
1.7066458e-10
9.471073e-10
-4.0920985e-13
9.4639572e-10
-2.1021687e-12
9.4511037e-10
9.9240481e-12
9.4643336e-10
-9.3348268e-12
9.4514083e-10
9.117346e-12
9.4644807e-10
-8.8286779e-12
9.452091e-10
8.3596417e-12
9.4637609e-10
-7.8665967e-12
9.4527129e-10
7.4287987e-12
9.4630855e-10
-6.9832435e-12
9.4533025e-10
6.5812249e-12
9.4625073e-10
-6.1944086e-12
9.4538359e-10
5.8349983e-12
9.4620045e-10
-5.4965462e-12
9.4543097e-10
5.1785561e-12
9.4615638e-10
-4.8812161e-12
9.4547274e-10
4.601078e-12
9.4611765e-10
-4.3397191e-12
9.4550945e-10
4.0935313e-12
9.4608364e-10
-3.8640472e-12
9.4554164e-10
3.6481583e-12
9.4605383e-10
-3.4470545e-12
9.4556978e-10
3.2581975e-12
9.4602777e-10
-3.0824364e-12
9.4559432e-10
2.9177328e-12
9.4600507e-10
-2.7646617e-12
9.4561564e-10
2.6215932e-12
9.4598539e-10
-2.488898e-12
9.4563405e-10
2.3652733e-12
9.4596843e-10
-2.2509439e-12
9.4564985e-10
2.144867e-12
9.4595393e-10
-2.0471675e-12
9.4566329e-10
1.957009e-12
9.4594167e-10
-1.8744524e-12
9.4567456e-10
1.7988249e-12
9.4593146e-10
-1.7301504e-12
9.4568384e-10
1.6678844e-12
9.4592315e-10
-1.6120387e-12
9.456913e-10
1.5621545e-12
9.4591661e-10
-1.5182626e-12
9.4569702e-10
1.4800591e-12
9.4591157e-10
-1.446869e-12
9.4570075e-10
1.4208909e-12
9.4590773e-10
-1.3985648e-12
9.457079e-10
1.3599392e-12
9.4594373e-10
-1.5003804e-12
1.2947981e-12
1.0788855e-09
1.2983645e-08
1.1481893e-09
-2.6737397e-10
1.1023782e-09
2.1647563e-10
1.1035956e-09
-1.626592e-12
1.1026492e-09
-1.1557881e-12
1.101633e-09
1.0940295e-11
1.1028305e-09
-1.0532374e-11
1.1016835e-09
1.0264337e-11
1.1028802e-09
-1.0025366e-11
1.1017482e-09
9.4916513e-12
1.1028155e-09
-8.9339211e-12
1.1018041e-09
8.4402239e-12
1.1027532e-09
-7.9322963e-12
1.1018577e-09
7.476658e-12
1.1027001e-09
-7.0367582e-12
1.1019065e-09
6.6285656e-12
1.1026541e-09
-6.2441106e-12
1.1019499e-09
5.882724e-12
1.1026138e-09
-5.5450882e-12
1.1019882e-09
5.2266697e-12
1.1025784e-09
-4.9299133e-12
1.1020218e-09
4.6500846e-12
1.1025473e-09
-4.3895173e-12
1.1020513e-09
4.1441388e-12
1.10252e-09
-3.915788e-12
1.1020771e-09
3.7011444e-12
1.1024962e-09
-3.5015621e-12
1.1020996e-09
3.3143779e-12
1.1024755e-09
-3.1405534e-12
1.1021191e-09
2.9779627e-12
1.1024575e-09
-2.8272702e-12
1.102136e-09
2.6867792e-12
1.102442e-09
-2.5569372e-12
1.1021504e-09
2.4363885e-12
1.1024287e-09
-2.3254269e-12
1.1021627e-09
2.2229666e-12
1.1024175e-09
-2.129197e-12
1.1021731e-09
2.0432459e-12
1.1024081e-09
-1.9652358e-12
1.1021816e-09
1.8944619e-12
1.1024005e-09
-1.8310133e-12
1.1021884e-09
1.7742959e-12
1.1023946e-09
-1.724411e-12
1.1021937e-09
1.6809488e-12
1.1023899e-09
-1.6431049e-12
1.102197e-09
1.6137707e-12
1.1023861e-09
-1.5876555e-12
1.1022039e-09
1.5421924e-12
1.102424e-09
-1.7204867e-12
1.4640255e-12
1.2118485e-09
1.4229546e-08
1.2992888e-09
-3.5481429e-10
1.2540876e-09
2.6167683e-10
1.2552734e-09
-2.8123059e-12
1.2542486e-09
-1.3101282e-13
1.253545e-09
1.1643852e-11
1.2546236e-09
-1.1610934e-11
1.2536234e-09
1.1264522e-11
1.2547092e-09
-1.1111183e-11
1.2536851e-09
1.051581e-11
1.2546519e-09
-9.9007846e-12
1.2537348e-09
9.3573744e-12
1.2545948e-09
-8.7923322e-12
1.253783e-09
8.2884265e-12
1.2545465e-09
-7.8002445e-12
1.2538272e-09
7.3478776e-12
1.2545048e-09
-6.921725e-12
1.2538666e-09
6.5209659e-12
1.2544683e-09
-6.1468458e-12
1.2539013e-09
5.7936808e-12
1.2544363e-09
-5.4648832e-12
1.2539319e-09
5.1545197e-12
1.2544082e-09
-4.8658162e-12
1.2539586e-09
4.5936741e-12
1.2543835e-09
-4.3406578e-12
1.253982e-09
4.102615e-12
1.2543619e-09
-3.8814661e-12
1.2540024e-09
3.6738852e-12
1.2543431e-09
-3.4812699e-12
1.2540201e-09
3.3009684e-12
1.2543268e-09
-3.1339788e-12
1.2540354e-09
2.9781879e-12
1.2543128e-09
-2.8342976e-12
1.2540486e-09
2.7006217e-12
1.2543008e-09
-2.5776485e-12
1.2540597e-09
2.4640294e-12
1.2542906e-09
-2.360103e-12
1.2540691e-09
2.2647869e-12
1.2542822e-09
-2.1783192e-12
1.2540768e-09
2.0998255e-12
1.2542753e-09
-2.0294865e-12
1.254083e-09
1.9665646e-12
1.2542698e-09
-1.9112443e-12
1.2540878e-09
1.862998e-12
1.2542656e-09
-1.8209008e-12
1.2540908e-09
1.7885818e-12
1.2542619e-09
-1.7587486e-12
1.2540972e-09
1.7068758e-12
1.2543006e-09
-1.923847e-12
1.6143484e-12
1.3585454e-09
1.5328751e-08
1.4453886e-09
-4.4165748e-10
1.4011371e-09
3.0592836e-10
1.4021121e-09
-3.7873525e-12
1.4011836e-09
7.9752679e-13
1.4008481e-09
1.1979359e-11
1.4018145e-09
-1.257733e-11
1.4009609e-09
1.2118068e-11
1.4019357e-09
-1.2085984e-11
1.4010195e-09
1.1432e-11
1.4018856e-09
-1.0766872e-11
1.4010631e-09
1.0179909e-11
1.4018338e-09
-9.5630379e-12
1.401106e-09
9.0162216e-12
1.4017903e-09
-8.4845806e-12
1.4011455e-09
7.9926682e-12
1.4017529e-09
-7.5291343e-12
1.4011809e-09
7.0930499e-12
1.4017203e-09
-6.6862642e-12
1.4012121e-09
6.3019082e-12
1.4016916e-09
-5.9444318e-12
1.4012395e-09
5.6066577e-12
1.4016664e-09
-5.2927709e-12
1.4012635e-09
4.996607e-12
1.4016443e-09
-4.7215119e-12
1.4012845e-09
4.4624701e-12
1.401625e-09
-4.2220144e-12
1.4013028e-09
3.9961317e-12
1.4016082e-09
-3.7866927e-12
1.4013187e-09
3.5905013e-12
1.4015936e-09
-3.4089194e-12
1.4013324e-09
3.2394026e-12
1.401581e-09
-3.0829324e-12
1.4013442e-09
2.9374807e-12
1.4015703e-09
-2.8037505e-12
1.4013542e-09
2.6801216e-12
1.4015612e-09
-2.5670981e-12
1.4013626e-09
2.463381e-12
1.4015536e-09
-2.3693367e-12
1.4013695e-09
2.2839166e-12
1.4015474e-09
-2.2074026e-12
1.4013751e-09
2.1389099e-12
1.4015426e-09
-2.078715e-12
1.4013794e-09
2.0261641e-12
1.4015387e-09
-1.980223e-12
1.401382e-09
1.9452848e-12
1.4015351e-09
-1.9118346e-12
1.4013879e-09
1.8540653e-12
1.4015737e-09
-2.1096424e-12
1.7458779e-12
1.4827241e-09
1.6303777e-08
1.5837941e-09
-5.4272744e-10
1.5436032e-09
3.4611925e-10
1.5442142e-09
-4.3983768e-12
1.543479e-09
1.5327227e-12
1.5435432e-09
1.1915135e-11
1.5444035e-09
-1.3437556e-11
1.5436957e-09
1.2825812e-11
1.5445599e-09
-1.2950198e-11
1.5437513e-09
1.2240604e-11
1.5445168e-09
-1.153238e-11
1.5437888e-09
1.0907963e-11
1.5444703e-09
-1.0244556e-11
1.5438263e-09
9.6601636e-12
1.5444317e-09
-9.089885e-12
1.5438613e-09
8.5630524e-12
1.5443986e-09
-8.0664428e-12
1.5438925e-09
7.5990825e-12
1.5443697e-09
-7.1634379e-12
1.5439202e-09
6.7514487e-12
1.5443444e-09
-6.3686451e-12
1.5439445e-09
6.0065867e-12
1.5443222e-09
-5.67046e-12
1.5439657e-09
5.3530169e-12
1.5443027e-09
-5.0584218e-12
1.5439843e-09
4.7807817e-12
1.5442856e-09
-4.5232723e-12
1.5440005e-09
4.2811825e-12
1.5442707e-09
-4.0568816e-12
1.5440146e-09
3.8466208e-12
1.5442578e-09
-3.6521468e-12
1.5440268e-09
3.470478e-12
1.5442467e-09
-3.3028925e-12
1.5440372e-09
3.1470161e-12
1.5442372e-09
-3.0037804e-12
1.5440461e-09
2.8712906e-12
1.5442292e-09
-2.7502276e-12
1.5440535e-09
2.6390735e-12
1.5442225e-09
-2.5383322e-12
1.5440596e-09
2.4467793e-12
1.544217e-09
-2.3648053e-12
1.5440646e-09
2.2913764e-12
1.5442127e-09
-2.2268681e-12
1.5440684e-09
2.1704938e-12
1.5442093e-09
-2.1211242e-12
1.5440706e-09
2.083925e-12
1.5442058e-09
-2.0469916e-12
1.544076e-09
1.9838984e-12
1.5442436e-09
-2.2772386e-12
1.8589021e-12
1.6198894e-09
1.7141638e-08
1.7179384e-09
-6.4077646e-10
1.6812887e-09
3.8276894e-10
1.6817461e-09
-4.8557204e-12
1.6812084e-09
2.0703987e-12
1.6816423e-09
1.1481253e-11
1.682394e-09
-1.4189334e-11
1.6818282e-09
1.3391632e-11
1.6825823e-09
-1.3704227e-11
1.6818803e-09
1.2942601e-11
1.6825458e-09
-1.2197934e-11
1.6819117e-09
1.154212e-11
1.6825045e-09
-1.0837438e-11
1.6819439e-09
1.0220764e-11
1.6824707e-09
-9.6166418e-12
1.6819743e-09
9.0594914e-12
1.6824419e-09
-8.5340801e-12
1.6820015e-09
8.0394765e-12
1.6824168e-09
-7.57875e-12
1.6820256e-09
7.142671e-12
1.6823948e-09
-6.7378655e-12
1.6820468e-09
6.3546357e-12
1.6823755e-09
-5.9991894e-12
1.6820653e-09
5.6631977e-12
1.6823585e-09
-5.3516616e-12
1.6820815e-09
5.0578125e-12
1.6823437e-09
-4.7854856e-12
1.6820956e-09
4.5292733e-12
1.6823308e-09
-4.2920574e-12
1.6821079e-09
4.0695387e-12
1.6823196e-09
-3.8638602e-12
1.6821185e-09
3.6716054e-12
1.6823099e-09
-3.4943587e-12
1.6821276e-09
3.3294018e-12
1.6823017e-09
-3.1779034e-12
1.6821353e-09
3.0376957e-12
1.6822947e-09
-2.9096436e-12
1.6821418e-09
2.7920117e-12
1.6822889e-09
-2.6854474e-12
1.6821471e-09
2.5885518e-12
1.6822841e-09
-2.5018283e-12
1.6821514e-09
2.4240958e-12
1.6822804e-09
-2.3558328e-12
1.6821547e-09
2.2961155e-12
1.6822774e-09
-2.2437362e-12
1.6821567e-09
2.204625e-12
1.682274e-09
-2.1643764e-12
1.6821614e-09
2.0965706e-12
1.6823103e-09
-2.4261696e-12
1.9538517e-12
1.7389026e-09
1.7860485e-08
1.8443149e-09
-7.461888e-10
1.8142181e-09
4.1286583e-10
1.8147153e-09
-5.3529964e-12
1.8143997e-09
2.3859996e-12
1.8151469e-09
1.0734115e-11
1.815787e-09
-1.4829445e-11
1.8153585e-09
1.382014e-11
1.816003e-09
-1.4348742e-11
1.8154062e-09
1.3539449e-11
1.8159728e-09
-1.2764548e-11
1.8154315e-09
1.2083362e-11
1.8159367e-09
-1.1342605e-11
1.8154586e-09
1.0698887e-11
1.8159076e-09
-1.0065667e-11
1.8154843e-09
9.4827574e-12
1.815883e-09
-8.9327699e-12
1.8155076e-09
8.4149207e-12
1.8158617e-09
-7.9328443e-12
1.8155282e-09
7.4761889e-12
1.815843e-09
-7.0526665e-12
1.8155462e-09
6.6513513e-12
1.8158265e-09
-6.2794708e-12
1.8155621e-09
5.9276367e-12
1.8158121e-09
-5.6016879e-12
1.8155759e-09
5.2939976e-12
1.8157995e-09
-5.0090626e-12
1.815588e-09
4.7407932e-12
1.8157885e-09
-4.4925866e-12
1.8155984e-09
4.2596045e-12
1.815779e-09
-4.0443895e-12
1.8156075e-09
3.8430999e-12
1.8157707e-09
-3.6576293e-12
1.8156152e-09
3.4849234e-12
1.8157637e-09
-3.326391e-12
1.8156218e-09
3.1795975e-12
1.8157578e-09
-3.0455949e-12
1.8156273e-09
2.9224355e-12
1.8157528e-09
-2.8109127e-12
1.8156319e-09
2.7094572e-12
1.8157488e-09
-2.6186876e-12
1.8156356e-09
2.5372788e-12
1.8157456e-09
-2.4658143e-12
1.8156384e-09
2.4032318e-12
1.815743e-09
-2.3482622e-12
1.81564e-09
2.3075772e-12
1.8157399e-09
-2.264216e-12
1.8156441e-09
2.192331e-12
1.815774e-09
-2.5561231e-12
2.0312717e-12
1.8663614e-09
1.8451874e-08
1.9674095e-09
-8.4723689e-10
1.9424441e-09
4.3783122e-10
1.9430767e-09
-5.9856372e-12
1.943041e-09
2.4216871e-12
1.9440577e-09
9.7174256e-12
1.9445829e-09
-1.5354669e-11
1.944287e-09
1.4116119e-11
1.9448227e-09
-1.4884454e-11
1.944329e-09
1.4033139e-11
1.944798e-09
-1.3233526e-11
1.9443483e-09
1.2533069e-11
1.9447669e-09
-1.1761294e-11
1.9443701e-09
1.109572e-11
1.9447425e-09
-1.043807e-11
1.9443914e-09
9.8339055e-12
1.9447221e-09
-9.2634992e-12
1.9444107e-09
8.7263532e-12
1.9447044e-09
-8.2265985e-12
1.9444278e-09
7.7528365e-12
1.9446889e-09
-7.3138293e-12
1.9444428e-09
6.8974758e-12
1.9446753e-09
-6.512e-12
1.944456e-09
6.1469949e-12
1.9446634e-09
-5.8091216e-12
1.9444675e-09
5.489927e-12
1.944653e-09
-5.1945585e-12
1.9444775e-09
4.91627e-12
1.9446439e-09
-4.6589666e-12
1.9444862e-09
4.4172916e-12
1.944636e-09
-4.1941824e-12
1.9444937e-09
3.9853879e-12
1.9446292e-09
-3.7931088e-12
1.9445001e-09
3.6139673e-12
1.9446234e-09
-3.4496105e-12
1.9445056e-09
3.2973482e-12
1.9446184e-09
-3.1584179e-12
1.9445102e-09
3.0306684e-12
1.9446143e-09
-2.9150385e-12
1.944514e-09
2.8097955e-12
1.944611e-09
-2.7156729e-12
1.944517e-09
2.6312073e-12
1.9446083e-09
-2.5570871e-12
1.9445194e-09
2.4921122e-12
1.9446061e-09
-2.4349702e-12
1.9445207e-09
2.3930378e-12
1.9446033e-09
-2.3467995e-12
1.9445241e-09
2.2714784e-12
1.9446349e-09
-2.6669264e-12
2.0917962e-12
1.980393e-09
1.8929231e-08
2.0830418e-09
-9.4988571e-10
2.0660011e-09
4.5487196e-10
2.0668785e-09
-6.8630327e-12
2.0671405e-09
2.1597263e-12
2.0683791e-09
8.4787818e-12
2.0687824e-09
-1.5757988e-11
2.0686136e-09
1.4284941e-11
2.0690414e-09
-1.5312267e-11
2.0686485e-09
1.4426002e-11
2.0690215e-09
-1.360651e-11
2.0686617e-09
1.2892932e-11
2.0689954e-09
-1.2095046e-11
2.0686784e-09
1.1412736e-11
2.0689756e-09
-1.0735228e-11
2.0686952e-09
1.0114241e-11
2.0689592e-09
-9.527492e-12
2.0687106e-09
8.9749342e-12
2.0689451e-09
-8.4611007e-12
2.0687243e-09
7.973645e-12
2.0689328e-09
-7.5223217e-12
2.0687364e-09
7.0939264e-12
2.068922e-09
-6.6976387e-12
2.0687469e-09
6.3220894e-12
2.0689125e-09
-5.9747311e-12
2.0687561e-09
5.6463294e-12
2.0689042e-09
-5.3426598e-12
2.0687641e-09
5.0563554e-12
2.068897e-09
-4.7918126e-12
2.0687711e-09
4.5431847e-12
2.0688907e-09
-4.3137918e-12
2.0687771e-09
4.0989963e-12
2.0688853e-09
-3.9012967e-12
2.0687822e-09
3.7170101e-12
2.0688806e-09
-3.5480158e-12
2.0687866e-09
3.391382e-12
2.0688767e-09
-3.2485275e-12
2.0687903e-09
3.117109e-12
2.0688735e-09
-2.9982074e-12
2.0687933e-09
2.8899363e-12
2.0688708e-09
-2.7931408e-12
2.0687958e-09
2.7062277e-12
2.0688687e-09
-2.6299879e-12
2.0687977e-09
2.5630868e-12
2.0688669e-09
-2.5041863e-12
2.0687986e-09
2.4613205e-12
2.0688643e-09
-2.4124717e-12
2.0688014e-09
2.3343565e-12
2.068893e-09
-2.7585334e-12
2.1361267e-12
2.0992894e-09
1.9287691e-08
2.1961522e-09
-1.0467485e-09
2.1849683e-09
4.6605584e-10
2.1861268e-09
-8.021561e-12
2.1866812e-09
1.6053776e-12
2.1881102e-09
7.0497314e-12
2.1883846e-09
-1.6032397e-11
2.1883379e-09
1.4331655e-11
2.1886592e-09
-1.5633578e-11
2.1883646e-09
1.4720586e-11
2.1886436e-09
-1.3885482e-11
2.1883716e-09
1.3164912e-11
2.1886223e-09
-1.2345673e-11
2.1883833e-09
1.1651658e-11
2.1886069e-09
-1.0958758e-11
2.1883958e-09
1.0325295e-11
2.1885945e-09
-9.7261841e-12
2.1884074e-09
9.1620229e-12
2.1885839e-09
-8.6376262e-12
2.1884178e-09
8.1398221e-12
2.1885747e-09
-7.6792776e-12
2.1884269e-09
7.2417769e-12
2.1885666e-09
-6.8373963e-12
2.1884348e-09
6.4538761e-12
2.1885595e-09
-6.0994161e-12
2.1884418e-09
5.7640576e-12
2.1885533e-09
-5.4541704e-12
2.1884479e-09
5.1618119e-12
2.1885479e-09
-4.8918449e-12
2.1884531e-09
4.6379679e-12
2.1885432e-09
-4.4038652e-12
2.1884576e-09
4.1845411e-12
2.1885391e-09
-3.9827777e-12
2.1884615e-09
3.7946096e-12
2.1885356e-09
-3.6221378e-12
2.1884648e-09
3.4622068e-12
2.1885327e-09
-3.316409e-12
2.1884676e-09
3.1822234e-12
2.1885302e-09
-3.060867e-12
2.1884699e-09
2.950311e-12
2.1885282e-09
-2.8515079e-12
2.1884717e-09
2.7627445e-12
2.1885266e-09
-2.6849097e-12
2.1884732e-09
2.61654e-12
2.1885253e-09
-2.5562894e-12
2.1884738e-09
2.5127909e-12
2.188523e-09
-2.4616262e-12
2.188476e-09
2.3813505e-12
2.1885485e-09
-2.8310126e-12
2.1650134e-12
2.2094499e-09
1.9535991e-08
2.3023231e-09
-1.1396217e-09
2.2993985e-09
4.689804e-10
2.3008665e-09
-9.4895143e-12
2.3016573e-09
8.1460361e-13
2.3032531e-09
5.4538721e-12
2.3033901e-09
-1.6169396e-11
2.30346e-09
1.4261752e-11
2.3036764e-09
-1.5849907e-11
2.3034772e-09
1.4919774e-11
2.3036644e-09
-1.407266e-11
2.303478e-09
1.3351243e-11
2.3036476e-09
-1.2515223e-11
2.3034848e-09
1.1814441e-11
2.3036365e-09
-1.1110487e-11
2.303493e-09
1.0468799e-11
2.303628e-09
-9.8611988e-12
2.3035009e-09
9.2891555e-12
2.3036209e-09
-8.7576173e-12
2.303508e-09
8.2527319e-12
2.3036147e-09
-7.785979e-12
2.3035142e-09
7.3422402e-12
2.3036092e-09
-6.9324137e-12
2.3035197e-09
6.5434348e-12
2.3036045e-09
-6.1841938e-12
2.3035244e-09
5.8440747e-12
2.3036003e-09
-5.5299988e-12
2.3035286e-09
5.233501e-12
2.3035966e-09
-4.9598773e-12
2.3035322e-09
4.7024141e-12
2.3035934e-09
-4.4651346e-12
2.3035353e-09
4.2427184e-12
2.3035907e-09
-4.0382127e-12
2.3035379e-09
3.847396e-12
2.3035883e-09
-3.6725765e-12
2.3035402e-09
3.5103965e-12
2.3035864e-09
-3.3626109e-12
2.303542e-09
3.2265381e-12
2.3035847e-09
-3.1035225e-12
2.3035436e-09
2.991407e-12
2.3035833e-09
-2.8912446e-12
2.3035449e-09
2.8012137e-12
2.3035823e-09
-2.7222953e-12
2.3035459e-09
2.6529052e-12
2.3035813e-09
-2.591705e-12
2.3035462e-09
2.5478609e-12
2.3035793e-09
-2.4947004e-12
2.3035478e-09
2.4128829e-12
2.3036013e-09
-2.8845366e-12
2.1792392e-12
2.3210987e-09
1.9672643e-08
2.4065911e-09
-1.2251141e-09
2.4094286e-09
4.6614285e-10
2.4111454e-09
-1.1206322e-11
2.4120549e-09
-9.48322e-14
2.4138083e-09
3.7004669e-12
2.4137988e-09
-1.6159876e-11
2.4139796e-09
1.4080896e-11
2.4140928e-09
-1.5963093e-11
2.413986e-09
1.5026623e-11
2.4140838e-09
-1.4170542e-11
2.4139807e-09
1.3454358e-11
2.4140715e-09
-1.2605963e-11
2.4139827e-09
1.1903234e-11
2.4140646e-09
-1.1192433e-11
2.4139868e-09
1.0546658e-11
2.4140599e-09
-9.9343272e-12
2.413991e-09
9.3580241e-12
2.4140561e-09
-8.8226641e-12
2.4139949e-09
8.3138775e-12
2.4140528e-09
-7.8438392e-12
2.4139984e-09
7.3966522e-12
2.4140499e-09
-6.9839485e-12
2.4140014e-09
6.5919551e-12
2.4140474e-09
-6.2301852e-12
2.414004e-09
5.8874421e-12
2.4140452e-09
-5.5711467e-12
2.4140063e-09
5.2723718e-12
2.4140432e-09
-4.9968072e-12
2.4140083e-09
4.7373748e-12
2.4140415e-09
-4.4984067e-12
2.4140099e-09
4.2742955e-12
2.4140401e-09
-4.0683303e-12
2.4140114e-09
3.8760636e-12
2.4140388e-09
-3.6999935e-12
2.4140126e-09
3.5365836e-12
2.4140378e-09
-3.3877379e-12
2.4140137e-09
3.2506331e-12
2.4140369e-09
-3.1267311e-12
2.4140145e-09
3.0137613e-12
2.4140361e-09
-2.9128693e-12
2.4140152e-09
2.8221378e-12
2.4140355e-09
-2.7426329e-12
2.4140158e-09
2.672659e-12
2.414035e-09
-2.6109008e-12
2.4140159e-09
2.5669843e-12
2.4140333e-09
-2.5121697e-12
2.4140168e-09
2.4294097e-12
2.4140516e-09
-2.9193714e-12
2.1796071e-12
2.4278872e-09
1.9702505e-08
2.5042856e-09
-1.3015125e-09
2.5149634e-09
4.554651e-10
2.5170211e-09
-1.326402e-11
2.5178797e-09
-9.534236e-13
2.5197788e-09
1.8012923e-12
2.5196113e-09
-1.5992346e-11
2.5198967e-09
1.3795485e-11
2.5199087e-09
-1.5975039e-11
2.5198909e-09
1.5044421e-11
2.5199022e-09
-1.4181836e-11
2.5198796e-09
1.3476892e-11
2.519894e-09
-1.2620351e-11
2.5198769e-09
1.1920364e-11
2.5198912e-09
-1.1206779e-11
2.5198769e-09
1.0560936e-11
2.5198901e-09
-9.947507e-12
2.5198777e-09
9.3704596e-12
2.5198895e-09
-8.8344871e-12
2.5198785e-09
8.3248842e-12
2.5198891e-09
-7.8543873e-12
2.5198792e-09
7.4064581e-12
2.5198887e-09
-6.9933614e-12
2.5198799e-09
6.6007236e-12
2.5198883e-09
-6.2386031e-12
2.5198804e-09
5.8953076e-12
2.519888e-09
-5.5786977e-12
2.5198809e-09
5.279451e-12
2.5198877e-09
-5.0036055e-12
2.5198813e-09
4.7437714e-12
2.5198875e-09
-4.5045545e-12
2.5198817e-09
4.2801022e-12
2.5198872e-09
-4.0739189e-12
2.5198819e-09
3.8813641e-12
2.5198871e-09
-3.7051048e-12
2.5198822e-09
3.5414525e-12
2.5198869e-09
-3.3924445e-12
2.5198824e-09
3.2551366e-12
2.5198868e-09
-3.1310958e-12
2.5198826e-09
3.0179551e-12
2.5198866e-09
-2.9169428e-12
2.5198827e-09
2.8260606e-12
2.5198865e-09
-2.7464502e-12
2.5198829e-09
2.6763169e-12
2.5198864e-09
-2.6143819e-12
2.5198827e-09
2.5706521e-12
2.5198851e-09
-2.514543e-12
2.5198831e-09
2.4314173e-12
2.5198996e-09
-2.9358672e-12
2.166928e-12
2.5326099e-09
1.9627646e-08
2.600462e-09
-1.3693645e-09
2.6161311e-09
4.3979596e-10
2.6184312e-09
-1.5564059e-11
2.6191317e-09
-1.6539814e-12
2.6211624e-09
-2.2936769e-13
2.6208274e-09
-1.5657306e-11
2.6212104e-09
1.3412432e-11
2.6211235e-09
-1.5888108e-11
2.6211915e-09
1.497642e-11
2.6211192e-09
-1.4109582e-11
2.6211745e-09
1.342157e-11
2.6211152e-09
-1.2561049e-11
2.6211673e-09
1.1868289e-11
2.6211164e-09
-1.1155866e-11
2.6211635e-09
1.0513829e-11
2.6211188e-09
-9.9028078e-12
2.6211609e-09
9.3284123e-12
2.6211213e-09
-8.7949222e-12
2.6211587e-09
8.2874847e-12
2.6211236e-09
-7.8192541e-12
2.6211568e-09
7.3731982e-12
2.6211256e-09
-6.9621035e-12
2.6211552e-09
6.5711118e-12
2.6211273e-09
-6.2107413e-12
2.6211537e-09
5.8688949e-12
2.6211288e-09
-5.5538076e-12
2.6211525e-09
5.2558334e-12
2.6211302e-09
-4.981308e-12
2.6211513e-09
4.7225864e-12
2.6211313e-09
-4.4845095e-12
2.6211504e-09
4.2610241e-12
2.6211323e-09
-4.05582e-12
2.6211495e-09
3.8640989e-12
2.6211331e-09
-3.6886744e-12
2.6211488e-09
3.5257335e-12
2.6211338e-09
-3.377429e-12
2.6211482e-09
3.2407184e-12
2.6211344e-09
-3.1172602e-12
2.6211477e-09
3.0046085e-12
2.6211349e-09
-2.9040639e-12
2.6211474e-09
2.8135621e-12
2.6211352e-09
-2.7343106e-12
2.6211471e-09
2.6644289e-12
2.6211354e-09
-2.6026863e-12
2.6211467e-09
2.5593883e-12
2.6211345e-09
-2.5023586e-12
2.6211465e-09
2.4194188e-12
2.6211451e-09
-2.9344502e-12
2.1420123e-12
2.6358565e-09
1.9449539e-08
2.6906275e-09
-1.4241354e-09
2.712795e-09
4.1762838e-10
2.7152554e-09
-1.8024383e-11
2.7158173e-09
-2.2159069e-12
2.7179522e-09
-2.3642436e-12
2.7174458e-09
-1.5150963e-11
2.7179198e-09
1.2938459e-11
2.7177369e-09
-1.5705167e-11
2.7178874e-09
1.4825837e-11
2.717735e-09
-1.395711e-11
2.7178653e-09
1.3291203e-11
2.7177352e-09
-1.2430906e-11
2.7178539e-09
1.1749585e-11
2.7177402e-09
-1.1042174e-11
2.7178464e-09
1.0407644e-11
2.717746e-09
-9.8024152e-12
2.7178405e-09
9.2339371e-12
2.7177515e-09
-8.7059058e-12
2.7178354e-09
8.2035051e-12
2.7177563e-09
-7.7401599e-12
2.717831e-09
7.2984964e-12
2.7177606e-09
-6.8917056e-12
2.7178272e-09
6.504566e-12
2.7177644e-09
-6.1479643e-12
2.7178238e-09
5.8094947e-12
2.7177677e-09
-5.4976957e-12
2.7178209e-09
5.2026737e-12
2.7177706e-09
-4.9310073e-12
2.7178183e-09
4.6748562e-12
2.717773e-09
-4.4392543e-12
2.7178161e-09
4.217995e-12
2.7177752e-09
-4.0149211e-12
2.7178142e-09
3.8251141e-12
2.717777e-09
-3.6515085e-12
2.7178125e-09
3.490197e-12
2.7177785e-09
-3.3434285e-12
2.7178112e-09
3.2080858e-12
2.7177798e-09
-3.0859034e-12
2.71781e-09
2.9743762e-12
2.7177808e-09
-2.8748645e-12
2.7178091e-09
2.7852544e-12
2.7177816e-09
-2.7068084e-12
2.7178085e-09
2.6375749e-12
2.7177822e-09
-2.5763811e-12
2.7178078e-09
2.5337461e-12
2.7177817e-09
-2.4761801e-12
2.7178071e-09
2.3939512e-12
2.7177883e-09
-2.9156139e-12
2.1056615e-12
2.7334095e-09
1.9173879e-08
2.7795213e-09
-1.4702472e-09
2.8050998e-09
3.920499e-10
2.8074639e-09
-2.0388523e-11
2.8079489e-09
-2.7008812e-12
2.8101432e-09
-4.5585662e-12
2.8094674e-09
-1.4475116e-11
2.8100253e-09
1.2380554e-11
2.809749e-09
-1.5428961e-11
2.8099788e-09
1.4596116e-11
2.8097495e-09
-1.3727845e-11
2.809952e-09
1.3088756e-11
2.8097539e-09
-1.2232882e-11
2.8099366e-09
1.1566949e-11
2.8097627e-09
-1.0868289e-11
2.8099255e-09
1.0244794e-11
2.8097717e-09
-9.6486127e-12
2.8099165e-09
9.0891806e-12
2.80978e-09
-8.569462e-12
2.8099087e-09
8.0748532e-12
2.8097874e-09
-7.6189023e-12
2.8099019e-09
7.1840493e-12
2.8097939e-09
-6.783767e-12
2.8098959e-09
6.4025971e-12
2.8097996e-09
-6.051698e-12
2.8098907e-09
5.7184555e-12
2.8098046e-09
-5.4116363e-12
2.8098861e-09
5.1211785e-12
2.809809e-09
-4.8538455e-12
2.8098822e-09
4.6016641e-12
2.8098127e-09
-4.3698163e-12
2.8098787e-09
4.1519914e-12
2.8098159e-09
-3.9521506e-12
2.8098758e-09
3.7652938e-12
2.8098187e-09
-3.5944504e-12
2.8098733e-09
3.435649e-12
2.809821e-09
-3.2912141e-12
2.8098712e-09