/*--------------------------------*- C++ -*----------------------------------*\
| =========                 |                                                 |
| \\      /  F ield         | OpenFOAM: The Open Source CFD Toolbox           |
|  \\    /   O peration     | Version:  2312                                  |
|   \\  /    A nd           | Website:  www.openfoam.com                      |
|    \\/     M anipulation  |                                                 |
\*---------------------------------------------------------------------------*/
FoamFile
{
    version     2.0;
    format      ascii;
    arch        "LSB;label=32;scalar=64";
    class       surfaceScalarField;
    location    "9";
    object      phi_0;
}
// * * * * * * * * * * * * * * * * * * * * * * * * * * * * * * * * * * * * * //

dimensions      [0 3 -1 0 0 0 0];

oriented        oriented;

internalField   nonuniform List<scalar> 
7870
(
1.0206711e-10
2.3556829e-09
1.015623e-10
5.0479859e-13
9.4558068e-11
7.0042362e-12
9.3960401e-11
5.9766438e-13
9.5089148e-11
-1.1287475e-12
9.3655486e-11
1.4336611e-12
9.4990931e-11
-1.3354447e-12
9.3710509e-11
1.2804218e-12
9.491928e-11
-1.2087708e-12
9.3778223e-11
1.1410564e-12
9.4851766e-11
-1.0735425e-12
9.3840251e-11
1.011514e-12
9.4792072e-11
-9.5182071e-13
9.389563e-11
8.9644218e-13
9.4739622e-11
-8.4399231e-13
9.3944634e-11
7.9498812e-13
9.4693476e-11
-7.4884178e-13
9.3987853e-11
7.0562336e-13
9.4652866e-11
-6.6501318e-13
9.4025896e-11
6.2696966e-13
9.4617157e-11
-5.9126099e-13
9.4059328e-11
5.5782934e-13
9.4585806e-11
-5.2647772e-13
9.408865e-11
4.9715566e-13
9.4558337e-11
-4.6968652e-13
9.4114306e-11
4.4403095e-13
9.4534334e-11
-4.2002887e-13
9.4136684e-11
3.9765086e-13
9.4513436e-11
-3.7675238e-13
9.4156124e-11
3.5731186e-13
9.4495324e-11
-3.3919988e-13
9.4172923e-11
3.2240084e-13
9.4479723e-11
-3.0680002e-13
9.4187337e-11
2.9238622e-13
9.4466396e-11
-2.7905896e-13
9.4199586e-11
2.6681021e-13
9.4455139e-11
-2.5555321e-13
9.4209857e-11
2.4528212e-13
9.444578e-11
-2.359234e-13
9.4218308e-11
2.2747261e-13
9.4438177e-11
-2.1986908e-13
9.4225068e-11
2.1310881e-13
9.4432211e-11
-2.0714305e-13
9.4230235e-11
2.019754e-13
9.4427773e-11
-1.9753758e-13
9.4233881e-11
1.9389242e-13
9.4425037e-11
-1.9115646e-13
9.4237711e-11
1.873262e-13
9.4430779e-11
-1.930686e-13
1.7959791e-13
2.7957966e-10
4.5338532e-09
2.9245355e-10
-1.2369099e-11
2.7443323e-10
2.5024555e-11
2.7367977e-10
1.3511282e-12
2.7494271e-10
-2.3916955e-12
2.7288337e-10
3.4930063e-12
2.7477292e-10
-3.2249982e-12
2.7294183e-10
3.1115136e-12
2.7467897e-10
-2.9459142e-12
2.7303672e-10
2.7833065e-12
2.7458165e-10
-2.6184733e-12
2.7312493e-10
2.4682361e-12
2.7449526e-10
-2.322146e-12
2.732044e-10
2.1872988e-12
2.7441963e-10
-2.0592232e-12
2.7327495e-10
1.9396683e-12
2.7435321e-10
-1.8270997e-12
2.7333724e-10
1.7215954e-12
2.7429479e-10
-1.6225633e-12
2.7339208e-10
1.5296765e-12
2.7424342e-10
-1.4426036e-12
2.7344028e-10
1.3609757e-12
2.7419832e-10
-1.2845268e-12
2.7348255e-10
1.2129348e-12
2.7415881e-10
-1.1459514e-12
2.7351953e-10
1.0833134e-12
2.7412428e-10
-1.0247825e-12
2.7355178e-10
9.7014818e-13
2.7409422e-10
-9.1918377e-13
2.7357981e-10
8.7172203e-13
2.7406816e-10
-8.2755124e-13
2.7360402e-10
7.8653858e-13
2.7404571e-10
-7.4849019e-13
2.7362479e-10
7.1330041e-13
2.7402653e-10
-6.8079518e-13
2.7364245e-10
6.5089021e-13
2.7401033e-10
-6.2343246e-13
2.7365726e-10
5.9835439e-13
2.7399686e-10
-5.7552471e-13
2.7366944e-10
5.548888e-13
2.7398591e-10
-5.3633814e-13
2.7367919e-10
5.1982649e-13
2.7397732e-10
-5.0526803e-13
2.7368665e-10
4.9264444e-13
2.739709e-10
-4.8178363e-13
2.7369184e-10
4.7294613e-13
2.7396684e-10
-4.6615636e-13
2.7369803e-10
4.5613788e-13
2.7398151e-10
-4.7654651e-13
4.3649016e-13
4.483383e-10
6.5432649e-09
4.7646253e-10
-4.0493334e-11
4.4932236e-10
5.2164731e-11
4.4911387e-10
1.5596121e-12
4.49766e-10
-3.0438264e-12
4.4786241e-10
5.3965968e-12
4.4960047e-10
-4.9630635e-12
4.4789529e-10
4.8166977e-12
4.4952782e-10
-4.578451e-12
4.479815e-10
4.329632e-12
4.4943616e-10
-4.0731377e-12
4.4806314e-10
3.8412534e-12
4.4935417e-10
-3.6131729e-12
4.4813768e-10
3.4037952e-12
4.4928277e-10
-3.2043194e-12
4.4820414e-10
3.0182964e-12
4.4922021e-10
-2.8431645e-12
4.4826291e-10
2.6788961e-12
4.4916522e-10
-2.5248763e-12
4.4831467e-10
2.380229e-12
4.4911688e-10
-2.2448185e-12
4.4836016e-10
2.1177026e-12
4.4907444e-10
-1.9988127e-12
4.4840005e-10
1.8873292e-12
4.4903725e-10
-1.783156e-12
4.4843495e-10
1.6856199e-12
4.4900475e-10
-1.5945885e-12
4.4846538e-10
1.5095181e-12
4.4897645e-10
-1.4302512e-12
4.4849182e-10
1.3563508e-12
4.4895192e-10
-1.287647e-12
4.4851467e-10
1.2237887e-12
4.4893078e-10
-1.1646045e-12
4.4853427e-10
1.109812e-12
4.4891272e-10
-1.0592468e-12
4.4855093e-10
1.0126814e-12
4.4889746e-10
-9.699645e-13
4.485649e-10
9.3091229e-13
4.4888477e-10
-8.9539126e-13
4.4857641e-10
8.6325217e-13
4.4887445e-10
-8.3438374e-13
4.4858562e-10
8.0866049e-13
4.4886635e-10
-7.8599714e-13
4.4859267e-10
7.6632595e-13
4.4886025e-10
-7.4936299e-13
4.485975e-10
7.356904e-13
4.4885631e-10
-7.2496176e-13
4.4860442e-10
7.0802288e-13
4.4887886e-10
-7.5098501e-13
6.7666485e-13
6.1593366e-10
8.3850813e-09
6.5427008e-10
-7.882976e-11
6.1955369e-10
8.6881126e-11
6.1983466e-10
1.278636e-12
6.1995002e-10
-3.1591899e-12
6.1822617e-10
7.1204443e-12
6.1981962e-10
-6.5565082e-12
6.1824652e-10
6.389796e-12
6.1977236e-10
-6.1042969e-12
6.1832541e-10
5.7765831e-12
6.196868e-10
-5.4345269e-12
6.1840051e-10
5.1275467e-12
6.1960942e-10
-4.8220815e-12
6.1846995e-10
4.543259e-12
6.1954239e-10
-4.2767532e-12
6.1853217e-10
4.0285094e-12
6.194838e-10
-3.7947877e-12
6.1858726e-10
3.5754319e-12
6.1943234e-10
-3.3699553e-12
6.186358e-10
3.1767694e-12
6.1938711e-10
-2.996132e-12
6.1867846e-10
2.8263599e-12
6.193474e-10
-2.6677588e-12
6.1871586e-10
2.5188709e-12
6.193126e-10
-2.379897e-12
6.1874858e-10
2.2496419e-12
6.1928219e-10
-2.1281947e-12
6.1877711e-10
2.0145914e-12
6.192557e-10
-1.9088345e-12
6.188019e-10
1.8101501e-12
6.1923273e-10
-1.7184815e-12
6.1882331e-10
1.6332077e-12
6.1921294e-10
-1.5542361e-12
6.1884169e-10
1.4810677e-12
6.1919603e-10
-1.413592e-12
6.1885731e-10
1.3514076e-12
6.1918174e-10
-1.2943997e-12
6.1887041e-10
1.2422446e-12
6.1916985e-10
-1.194834e-12
6.188812e-10
1.1519051e-12
6.1916018e-10
-1.113366e-12
6.1888985e-10
1.0789958e-12
6.1915258e-10
-1.0487289e-12
6.1889647e-10
1.0224344e-12
6.1914681e-10
-9.9970228e-13
6.1890094e-10
9.8155773e-13
6.1914291e-10
-9.6693453e-13
6.1890818e-10
9.4275426e-13
6.1917145e-10
-1.0142492e-12
9.0044541e-13
7.7059689e-10
1.0072234e-08
8.2526163e-10
-1.3349451e-10
7.8517351e-10
1.2696925e-10
7.8584059e-10
6.1154693e-13
7.8549372e-10
-2.8123218e-12
7.8397504e-10
8.6391282e-12
7.8543018e-10
-8.0116477e-12
7.8399508e-10
7.8248904e-12
7.854123e-10
-7.5215142e-12
7.8406803e-10
7.1208509e-12
7.8533332e-10
-6.6998152e-12
7.8413663e-10
6.3242345e-12
7.8526077e-10
-5.9462167e-12
7.8420088e-10
5.6031475e-12
7.8519827e-10
-5.274147e-12
7.8425872e-10
4.9680615e-12
7.8514379e-10
-4.6798574e-12
7.8431001e-10
4.4092157e-12
7.8509598e-10
-4.1559279e-12
7.8435521e-10
3.9175377e-12
7.8505396e-10
-3.6948846e-12
7.8439494e-10
3.4853869e-12
7.8501707e-10
-3.2898934e-12
7.8442977e-10
3.1061746e-12
7.8498474e-10
-2.9348675e-12
7.8446023e-10
2.7741484e-12
7.8495647e-10
-2.624439e-12
7.8448679e-10
2.4842719e-12
7.8493186e-10
-2.353898e-12
7.8450987e-10
2.2321416e-12
7.8491051e-10
-2.1191296e-12
7.845298e-10
2.0139205e-12
7.8489212e-10
-1.9165562e-12
7.8454691e-10
1.8262818e-12
7.848764e-10
-1.7430854e-12
7.8456145e-10
1.6663605e-12
7.8486311e-10
-1.5960647e-12
7.8457365e-10
1.5317097e-12
7.8485205e-10
-1.4732409e-12
7.845837e-10
1.4202627e-12
7.8484306e-10
-1.3727252e-12
7.8459176e-10
1.3302954e-12
7.8483597e-10
-1.292947e-12
7.8459794e-10
1.2604703e-12
7.8483056e-10
-1.232323e-12
7.8460204e-10
1.2100752e-12
7.8482669e-10
-1.1915853e-12
7.8460934e-10
1.1601069e-12
7.8485964e-10
-1.2645518e-12
1.1067872e-12
9.3035982e-10
1.1599625e-08
9.9001773e-10
-1.9315244e-10
9.4607457e-10
1.7091242e-10
9.4710585e-10
-4.1973843e-13
9.4639565e-10
-2.102128e-12
9.4511048e-10
9.9243009e-12
9.4643345e-10
-9.3346141e-12
9.4514082e-10
9.1175201e-12
9.4644811e-10
-8.8288091e-12
9.4520908e-10
8.3598871e-12
9.4637612e-10
-7.8668576e-12
9.4527127e-10
7.4290861e-12
9.4630858e-10
-6.9835291e-12
9.4533023e-10
6.5814985e-12
9.4625074e-10
-6.1946613e-12
9.4538358e-10
5.8352227e-12
9.4620046e-10
-5.4967403e-12
9.4543096e-10
5.1787178e-12
9.4615638e-10
-4.881347e-12
9.4547274e-10
4.6011795e-12
9.4611765e-10
-4.3397946e-12
9.4550945e-10
4.0935838e-12
9.4608364e-10
-3.8640806e-12
9.4554164e-10
3.648176e-12
9.4605383e-10
-3.4470599e-12
9.4556979e-10
3.2581936e-12
9.4602777e-10
-3.0824261e-12
9.4559433e-10
2.9177181e-12
9.4600507e-10
-2.7646446e-12
9.4561564e-10
2.6215751e-12
9.4598539e-10
-2.48888e-12
9.4563405e-10
2.3652562e-12
9.4596843e-10
-2.2509283e-12
9.4564985e-10
2.1448531e-12
9.4595392e-10
-2.0471555e-12
9.4566329e-10
1.9569989e-12
9.4594167e-10
-1.8744442e-12
9.4567456e-10
1.7988184e-12
9.4593146e-10
-1.7301454e-12
9.4568384e-10
1.6678808e-12
9.4592315e-10
-1.6120362e-12
9.456913e-10
1.562153e-12
9.4591661e-10
-1.5182618e-12
9.4569702e-10
1.480059e-12
9.4591157e-10
-1.4468694e-12
9.4570075e-10
1.4208917e-12
9.4590773e-10
-1.3985659e-12
9.457079e-10
1.3599405e-12
9.4594373e-10
-1.5003819e-12
1.2947994e-12
1.0698061e-09
1.2987568e-08
1.1477276e-09
-2.7107399e-10
1.1024188e-09
2.1622128e-10
1.1035986e-09
-1.5996033e-12
1.10265e-09
-1.1534772e-12
1.101633e-09
1.0941295e-11
1.1028306e-09
-1.0532201e-11
1.1016835e-09
1.0264597e-11
1.1028803e-09
-1.0025557e-11
1.1017482e-09
9.4919699e-12
1.1028156e-09
-8.9342418e-12
1.1018041e-09
8.4405673e-12
1.1027532e-09
-7.9326294e-12
1.1018577e-09
7.4769711e-12
1.1027001e-09
-7.0370427e-12
1.1019065e-09
6.6288143e-12
1.1026541e-09
-6.2443226e-12
1.1019499e-09
5.8828977e-12
1.1026138e-09
-5.5452266e-12
1.1019882e-09
5.2267747e-12
1.1025784e-09
-4.9299894e-12
1.1020218e-09
4.6501355e-12
1.1025473e-09
-4.3895476e-12
1.1020513e-09
4.1441524e-12
1.10252e-09
-3.9157889e-12
1.1020771e-09
3.701136e-12
1.1024962e-09
-3.5015472e-12
1.1020996e-09
3.314359e-12
1.1024755e-09
-3.1405325e-12
1.1021191e-09
2.9779413e-12
1.1024575e-09
-2.8272494e-12
1.102136e-09
2.6867598e-12
1.102442e-09
-2.5569197e-12
1.1021504e-09
2.4363731e-12
1.1024287e-09
-2.3254138e-12
1.1021627e-09
2.2229557e-12
1.1024175e-09
-2.1291882e-12
1.1021731e-09
2.043239e-12
1.1024081e-09
-1.9652306e-12
1.1021816e-09
1.8944581e-12
1.1024005e-09
-1.8310108e-12
1.1021884e-09
1.7742944e-12
1.1023946e-09
-1.7244105e-12
1.1021937e-09
1.6809489e-12
1.1023899e-09
-1.6431055e-12
1.102197e-09
1.6137717e-12
1.1023861e-09
-1.5876568e-12
1.1022039e-09
1.5421939e-12
1.102424e-09
-1.7204885e-12
1.464027e-12
1.2216061e-09
1.4223712e-08
1.2999433e-09
-3.4941127e-10
1.2540628e-09
2.6210177e-10
1.2552713e-09
-2.8080645e-12
1.2542483e-09
-1.3053075e-13
1.2535451e-09
1.1644486e-11
1.2546237e-09
-1.1610757e-11
1.2536234e-09
1.1264909e-11
1.2547093e-09
-1.111143e-11
1.253685e-09
1.0516201e-11
1.254652e-09
-9.9011615e-12
1.2537348e-09
9.3577684e-12
1.2545948e-09
-8.7927061e-12
1.253783e-09
8.288772e-12
1.2545465e-09
-7.8005537e-12
1.2538272e-09
7.3481438e-12
1.2545048e-09
-6.9219486e-12
1.2538666e-09
6.5211462e-12
1.2544683e-09
-6.1469868e-12
1.2539013e-09
5.7937855e-12
1.2544363e-09
-5.4649568e-12
1.2539319e-09
5.1545666e-12
1.2544082e-09
-4.8658418e-12
1.2539586e-09
4.5936826e-12
1.2543835e-09
-4.3406535e-12
1.253982e-09
4.1026015e-12
1.2543619e-09
-3.8814466e-12
1.2540024e-09
3.6738623e-12
1.2543431e-09
-3.4812455e-12
1.2540201e-09
3.3009441e-12
1.2543268e-09
-3.1339556e-12
1.2540354e-09
2.9781665e-12
1.2543128e-09
-2.8342786e-12
1.2540486e-09
2.7006052e-12
1.2543008e-09
-2.5776346e-12
1.2540597e-09
2.464018e-12
1.2542906e-09
-2.3600939e-12
1.2540691e-09
2.2647799e-12
1.2542822e-09
-2.178314e-12
1.2540768e-09
2.0998219e-12
1.2542753e-09
-2.0294842e-12
1.254083e-09
1.9665633e-12
1.2542698e-09
-1.9112439e-12
1.2540878e-09
1.8629983e-12
1.2542656e-09
-1.8209017e-12
1.2540908e-09
1.788583e-12
1.2542619e-09
-1.7587502e-12
1.2540972e-09
1.7068775e-12
1.2543006e-09
-1.9238491e-12
1.6143501e-12
1.3491989e-09
1.5332263e-08
1.444613e-09
-4.4482533e-10
1.4011595e-09
3.0555528e-10
1.4021145e-09
-3.7630859e-12
1.4011845e-09
7.9943123e-13
1.4008481e-09
1.1980926e-11
1.4018145e-09
-1.2577209e-11
1.4009609e-09
1.2118549e-11
1.4019358e-09
-1.208629e-11
1.4010195e-09
1.143246e-11
1.4018856e-09
-1.0767298e-11
1.4010631e-09
1.0180346e-11
1.4018338e-09
-9.5634445e-12
1.401106e-09
9.0165915e-12
1.4017903e-09
-8.4849068e-12
1.4011455e-09
7.9929448e-12
1.4017529e-09
-7.5293634e-12
1.4011809e-09
7.0932316e-12
1.4017203e-09
-6.6864037e-12
1.4012121e-09
6.302009e-12
1.4016916e-09
-5.9445003e-12
1.4012395e-09
5.6066989e-12
1.4016664e-09
-5.2927905e-12
1.4012635e-09
4.9966096e-12
1.4016443e-09
-4.7215021e-12
1.4012845e-09
4.4624517e-12
1.401625e-09
-4.2219906e-12
1.4013028e-09
3.9961051e-12
1.4016082e-09
-3.7866653e-12
1.4013187e-09
3.5904745e-12
1.4015936e-09
-3.4088943e-12
1.4013324e-09
3.2393799e-12
1.401581e-09
-3.0829124e-12
1.4013442e-09
2.9374635e-12
1.4015703e-09
-2.8037362e-12
1.4013542e-09
2.68011e-12
1.4015612e-09
-2.567089e-12
1.4013626e-09
2.4633741e-12
1.4015536e-09
-2.3693316e-12
1.4013695e-09
2.2839132e-12
1.4015474e-09
-2.2074005e-12
1.4013751e-09
2.1389088e-12
1.4015426e-09
-2.0787149e-12
1.4013794e-09
2.0261646e-12
1.4015387e-09
-1.9802241e-12
1.401382e-09
1.9452862e-12
1.4015351e-09
-1.9118363e-12
1.4013879e-09
1.8540672e-12
1.4015737e-09
-2.1096447e-12
1.7458797e-12
1.4911299e-09
1.6298884e-08
1.5846994e-09
-5.3839492e-10
1.543582e-09
3.4667274e-10
1.5442121e-09
-4.3931778e-12
1.5434785e-09
1.5330318e-12
1.5435433e-09
1.1916045e-11
1.5444036e-09
-1.3437455e-11
1.5436957e-09
1.2826426e-11
1.54456e-09
-1.2950549e-11
1.5437513e-09
1.2241126e-11
1.5445168e-09
-1.1532848e-11
1.5437888e-09
1.0908434e-11
1.5444703e-09
-1.0244987e-11
1.5438263e-09
9.6605495e-12
1.5444317e-09
-9.0902206e-12
1.5438613e-09
8.5633328e-12
1.5443986e-09
-8.0666717e-12
1.5438925e-09
7.5992608e-12
1.5443697e-09
-7.1635722e-12
1.5439202e-09
6.7515431e-12
1.5443444e-09
-6.3687067e-12
1.5439445e-09
6.0066208e-12
1.5443221e-09
-5.6704728e-12
1.5439657e-09
5.3530133e-12
1.5443026e-09
-5.0584066e-12
1.5439843e-09
4.7807586e-12
1.5442856e-09
-4.5232446e-12
1.5440005e-09
4.2811527e-12
1.5442707e-09
-4.0568517e-12
1.5440146e-09
3.8465921e-12
1.5442578e-09
-3.6521202e-12
1.5440268e-09
3.4704543e-12
1.5442467e-09
-3.3028718e-12
1.5440372e-09
3.1469986e-12
1.5442372e-09
-3.003766e-12
1.5440461e-09
2.871279e-12
1.5442292e-09
-2.7502186e-12
1.5440535e-09
2.6390667e-12
1.5442225e-09
-2.5383273e-12
1.5440596e-09
2.4467761e-12
1.544217e-09
-2.3648034e-12
1.5440646e-09
2.2913756e-12
1.5442127e-09
-2.2268683e-12
1.5440684e-09
2.1704945e-12
1.5442093e-09
-2.1211255e-12
1.5440706e-09
2.0839267e-12
1.5442058e-09
-2.0469935e-12
1.544076e-09
1.9839005e-12
1.5442436e-09
-2.277241e-12
1.858904e-12
1.6125684e-09
1.7144065e-08
1.7169459e-09
-6.4277248e-10
1.6812802e-09
3.8233844e-10
1.6817469e-09
-4.8598529e-12
1.6812096e-09
2.0702906e-12
1.6816423e-09
1.1483364e-11
1.6823941e-09
-1.4189253e-11
1.6818282e-09
1.3392328e-11
1.6825823e-09
-1.3704621e-11
1.6818802e-09
1.2943177e-11
1.6825458e-09
-1.2198431e-11
1.6819116e-09
1.1542616e-11
1.6825045e-09
-1.0837883e-11
1.6819439e-09
1.0221158e-11
1.6824707e-09
-9.6169794e-12
1.6819743e-09
9.0597694e-12
1.6824419e-09
-8.5343039e-12
1.6820015e-09
8.0396476e-12
1.6824168e-09
-7.5788762e-12
1.6820256e-09
7.142757e-12
1.6823948e-09
-6.7379189e-12
1.6820468e-09
6.3546622e-12
1.6823755e-09
-5.9991954e-12
1.6820653e-09
5.6631881e-12
1.6823585e-09
-5.3516413e-12
1.6820815e-09
5.0577853e-12
1.6823437e-09
-4.7854546e-12
1.6820956e-09
4.5292409e-12
1.6823308e-09
-4.2920256e-12
1.6821079e-09
4.0695087e-12
1.6823196e-09
-3.8638328e-12
1.6821185e-09
3.6715812e-12
1.6823099e-09
-3.4943378e-12
1.6821276e-09
3.3293843e-12
1.6823017e-09
-3.1778891e-12
1.6821353e-09
3.0376843e-12
1.6822947e-09
-2.9096348e-12
1.6821418e-09
2.7920052e-12
1.6822889e-09
-2.6854429e-12
1.6821471e-09
2.5885489e-12
1.6822841e-09
-2.5018268e-12
1.6821514e-09
2.4240953e-12
1.6822804e-09
-2.3558331e-12
1.6821547e-09
2.2961165e-12
1.6822774e-09
-2.2437377e-12
1.6821567e-09
2.2046268e-12
1.682274e-09
-2.1643785e-12
1.6821614e-09
2.0965728e-12
1.6823103e-09
-2.4261722e-12
1.9538537e-12
1.7450758e-09
1.7856739e-08
1.8453824e-09
-7.4307905e-10
1.8142139e-09
4.1350697e-10
1.8147152e-09
-5.3611804e-12
1.8143993e-09
2.3862216e-12
1.815147e-09
1.0735658e-11
1.8157871e-09
-1.4829396e-11
1.8153585e-09
1.3820948e-11
1.816003e-09
-1.4349159e-11
1.8154061e-09
1.3540067e-11
1.8159728e-09
-1.2765065e-11
1.8154315e-09
1.2083873e-11
1.8159367e-09
-1.1343056e-11
1.8154586e-09
1.069928e-11
1.8159076e-09
-1.0066e-11
1.8154843e-09
9.4830278e-12
1.815883e-09
-8.9329844e-12
1.8155076e-09
8.4150817e-12
1.8158617e-09
-7.9329603e-12
1.8155282e-09
7.4762652e-12
1.8158429e-09
-7.052711e-12
1.8155462e-09
6.65137e-12
1.8158265e-09
-6.27947e-12
1.8155621e-09
5.9276215e-12
1.8158121e-09
-5.6016631e-12
1.8155759e-09
5.2939669e-12
1.8157995e-09
-5.009029e-12
1.815588e-09
4.740759e-12
1.8157885e-09
-4.4925535e-12
1.8155984e-09
4.2595737e-12
1.815779e-09
-4.0443618e-12
1.8156075e-09
3.8430756e-12
1.8157707e-09
-3.6576086e-12
1.8156152e-09
3.4849062e-12
1.8157637e-09
-3.326377e-12
1.8156218e-09
3.1795865e-12
1.8157578e-09
-3.0455866e-12
1.8156273e-09
2.9224295e-12
1.8157528e-09
-2.8109086e-12
1.8156319e-09
2.7094546e-12
1.8157488e-09
-2.6186864e-12
1.8156356e-09
2.5372785e-12
1.8157456e-09
-2.4658149e-12
1.8156384e-09
2.4032329e-12
1.815743e-09
-2.3482638e-12
1.81564e-09
2.3075791e-12
1.8157399e-09
-2.2642182e-12
1.8156441e-09
2.1923334e-12
1.815774e-09
-2.5561259e-12
2.0312737e-12
1.8612761e-09
1.8453213e-08
1.9662892e-09
-8.4809215e-10
1.9424644e-09
4.373318e-10
1.9430815e-09
-5.9782762e-12
1.9430422e-09
2.425468e-12
1.9440578e-09
9.7200806e-12
1.944583e-09
-1.5354619e-11
1.944287e-09
1.411699e-11
1.9448227e-09
-1.4884891e-11
1.944329e-09
1.4033787e-11
1.944798e-09
-1.3234051e-11
1.9443483e-09
1.2533585e-11
1.9447669e-09
-1.1761741e-11
1.9443701e-09
1.1096106e-11
1.9447425e-09
-1.0438393e-11
1.9443914e-09
9.834164e-12
1.9447221e-09
-9.2637013e-12
1.9444107e-09
8.726502e-12
1.9447044e-09
-8.2267032e-12
1.9444278e-09
7.7529025e-12
1.9446889e-09
-7.313865e-12
1.9444428e-09
6.8974869e-12
1.9446753e-09
-6.5119931e-12
1.944456e-09
6.146975e-12
1.9446634e-09
-5.8090932e-12
1.9444675e-09
5.4898936e-12
1.944653e-09
-5.194523e-12
1.9444775e-09
4.9162347e-12
1.9446439e-09
-4.6589329e-12
1.9444862e-09
4.4172606e-12
1.944636e-09
-4.1941547e-12
1.9444937e-09
3.9853639e-12
1.9446292e-09
-3.7930885e-12
1.9445001e-09
3.6139505e-12
1.9446234e-09
-3.4495971e-12
1.9445056e-09
3.2973377e-12
1.9446184e-09
-3.1584101e-12
1.9445102e-09
3.0306628e-12
1.9446143e-09
-2.9150348e-12
1.944514e-09
2.8097933e-12
1.944611e-09
-2.715672e-12
1.944517e-09
2.6312073e-12
1.9446083e-09
-2.5570879e-12
1.9445194e-09
2.4921135e-12
1.9446061e-09
-2.434972e-12
1.9445207e-09
2.3930399e-12
1.9446033e-09
-2.3468018e-12
1.9445241e-09
2.2714808e-12
1.9446349e-09
-2.6669293e-12
2.0917983e-12
1.9844553e-09
1.8926508e-08
2.0842063e-09
-9.4784312e-10
2.0660221e-09
4.5551598e-10
2.0668792e-09
-6.8354083e-12
2.06714e-09
2.1647126e-12
2.0683792e-09
8.4808464e-12
2.0687825e-09
-1.5757916e-11
2.0686136e-09
1.4285892e-11
2.0690414e-09
-1.5312704e-11
2.0686485e-09
1.4426667e-11
2.0690215e-09
-1.3607034e-11
2.0686617e-09
1.2893443e-11
2.0689954e-09
-1.2095482e-11
2.0686784e-09
1.1413109e-11
2.0689756e-09
-1.0735536e-11
2.0686952e-09
1.0114485e-11
2.0689592e-09
-9.5276797e-12
2.0687106e-09
8.9750697e-12
2.0689451e-09
-8.4611935e-12
2.0687243e-09
7.9737009e-12
2.0689328e-09
-7.5223488e-12
2.0687364e-09
7.0939307e-12
2.068922e-09
-6.6976265e-12
2.0687469e-09
6.3220654e-12
2.0689125e-09
-5.9746998e-12
2.0687561e-09
5.6462941e-12
2.0689042e-09
-5.3426232e-12
2.0687641e-09
5.0563195e-12
2.068897e-09
-4.7917788e-12
2.0687711e-09
4.5431539e-12
2.0688907e-09
-4.3137645e-12
2.0687771e-09
4.0989728e-12
2.0688853e-09
-3.901277e-12
2.0687822e-09
3.7169939e-12
2.0688806e-09
-3.548003e-12
2.0687866e-09
3.3913721e-12
2.0688767e-09
-3.2485202e-12
2.0687903e-09
3.1171039e-12
2.0688735e-09
-2.9982041e-12
2.0687933e-09
2.8899344e-12
2.0688708e-09
-2.7931402e-12
2.0687958e-09
2.706228e-12
2.0688687e-09
-2.6299889e-12
2.0687977e-09
2.5630883e-12
2.0688669e-09
-2.5041882e-12
2.0687986e-09
2.4613227e-12
2.0688643e-09
-2.4124741e-12
2.0688014e-09
2.3343589e-12
2.068893e-09
-2.7585363e-12
2.1361288e-12
2.0962086e-09
1.9288049e-08
2.1949727e-09
-1.0466072e-09
2.1849593e-09
4.6552932e-10
2.1861291e-09
-8.005196e-12
2.1866823e-09
1.6115008e-12
2.1881103e-09
7.0528802e-12
2.1883847e-09
-1.6032282e-11
2.1883379e-09
1.4332625e-11
2.1886592e-09
-1.5634013e-11
2.1883646e-09
1.4721256e-11
2.1886436e-09
-1.3885994e-11
2.1883716e-09
1.3165412e-11
2.1886223e-09
-1.2346093e-11
2.1883833e-09
1.1652013e-11
2.1886069e-09
-1.0959048e-11
2.1883958e-09
1.0325522e-11
2.1885945e-09
-9.7263561e-12
2.1884074e-09
9.1621447e-12
2.1885839e-09
-8.6377072e-12
2.1884178e-09
8.1398682e-12
2.1885747e-09
-7.6792969e-12
2.1884269e-09
7.2417752e-12
2.1885666e-09
-6.8373796e-12
2.1884348e-09
6.453849e-12
2.1885595e-09
-6.0993828e-12
2.1884418e-09
5.7640211e-12
2.1885533e-09
-5.4541333e-12
2.1884479e-09
5.1617761e-12
2.1885479e-09
-4.8918114e-12
2.1884531e-09
4.6379378e-12
2.1885432e-09
-4.4038387e-12
2.1884576e-09
4.1845184e-12
2.1885391e-09
-3.9827588e-12
2.1884615e-09
3.7945943e-12
2.1885356e-09
-3.6221257e-12
2.1884648e-09
3.4621975e-12
2.1885327e-09
-3.3164022e-12
2.1884676e-09
3.1822188e-12
2.1885302e-09
-3.0608641e-12
2.1884699e-09
2.9503094e-12
2.1885282e-09
-2.8515075e-12
2.1884717e-09
2.762745e-12
2.1885266e-09
-2.6849108e-12
2.1884732e-09
2.6165417e-12
2.1885253e-09
-2.5562914e-12
2.1884738e-09
2.5127931e-12
2.188523e-09
-2.4616286e-12
2.188476e-09
2.381353e-12
2.1885485e-09
-2.8310156e-12
2.1650154e-12
2.2116187e-09
1.9534181e-08
2.3035292e-09
-1.1385177e-09
2.2994232e-09
4.6963527e-10
2.3008663e-09
-9.4482767e-12
2.3016566e-09
8.2114774e-13
2.3032532e-09
5.4562628e-12
2.3033902e-09
-1.6169235e-11
2.3034601e-09
1.4262763e-11
2.3036764e-09
-1.5850321e-11
2.3034772e-09
1.4920437e-11
2.3036643e-09
-1.4073154e-11
2.303478e-09
1.3351723e-11
2.3036476e-09
-1.2515621e-11
2.3034848e-09
1.1814776e-11
2.3036365e-09
-1.1110757e-11
2.303493e-09
1.0469007e-11
2.303628e-09
-9.8613549e-12
2.3035009e-09
9.2892637e-12
2.3036209e-09
-8.7576872e-12
2.303508e-09
8.2527692e-12
2.3036147e-09
-7.7859916e-12
2.3035142e-09
7.3422335e-12
2.3036092e-09
-6.9323936e-12
2.3035197e-09
6.5434056e-12
2.3036045e-09
-6.1841593e-12
2.3035244e-09
5.8440379e-12
2.3036003e-09
-5.5299619e-12
2.3035286e-09
5.2334657e-12
2.3035966e-09
-4.9598447e-12
2.3035322e-09
4.7023849e-12
2.3035934e-09
-4.4651091e-12
2.3035353e-09
4.2426968e-12
2.3035907e-09
-4.0381947e-12
2.3035379e-09
3.8473815e-12
2.3035883e-09
-3.6725651e-12
2.3035402e-09
3.5103879e-12
2.3035864e-09
-3.3626047e-12
2.303542e-09
3.2265339e-12
2.3035847e-09
-3.10352e-12
2.3035436e-09
2.9914057e-12
2.3035833e-09
-2.8912445e-12
2.3035449e-09
2.8012143e-12
2.3035823e-09
-2.7222966e-12
2.3035459e-09
2.6529069e-12
2.3035813e-09
-2.591707e-12
2.3035462e-09
2.5478632e-12
2.3035793e-09
-2.4947028e-12
2.3035478e-09
2.4128854e-12
2.3036013e-09
-2.8845396e-12
2.1792412e-12
2.3198398e-09
1.9672091e-08
2.4053926e-09
-1.2240705e-09
2.4093999e-09
4.6562803e-10
2.4111463e-09
-1.119472e-11
2.4120559e-09
-8.8441575e-14
2.4138083e-09
3.7038205e-12
2.4137988e-09
-1.6159666e-11
2.4139796e-09
1.4081885e-11
2.4140928e-09
-1.5963488e-11
2.413986e-09
1.502727e-11
2.4140838e-09
-1.4171011e-11
2.4139807e-09
1.3454814e-11
2.4140715e-09
-1.2606336e-11
2.4139827e-09
1.1903546e-11
2.4140646e-09
-1.1192682e-11
2.4139868e-09
1.0546848e-11
2.4140599e-09
-9.9344678e-12
2.413991e-09
9.3581197e-12
2.4140561e-09
-8.8227238e-12
2.4139949e-09
8.3139071e-12
2.4140528e-09
-7.8438461e-12
2.4139984e-09
7.3966417e-12
2.4140499e-09
-6.9839259e-12
2.4140014e-09
6.5919246e-12
2.4140474e-09
-6.2301503e-12
2.414004e-09
5.8874056e-12
2.4140452e-09
-5.5711105e-12
2.4140063e-09
5.2723375e-12
2.4140432e-09
-4.9967757e-12
2.4140082e-09
4.7373468e-12
2.4140415e-09
-4.4983824e-12
2.4140099e-09
4.2742749e-12
2.4140401e-09
-4.0683133e-12
2.4140114e-09
3.87605e-12
2.4140388e-09
-3.6999829e-12
2.4140126e-09
3.5365757e-12
2.4140378e-09
-3.3877323e-12
2.4140137e-09
3.2506294e-12
2.4140369e-09
-3.1267289e-12
2.4140145e-09
3.0137603e-12
2.4140361e-09
-2.9128693e-12
2.4140152e-09
2.8221386e-12
2.4140355e-09
-2.7426342e-12
2.4140158e-09
2.6726607e-12
2.414035e-09
-2.6109029e-12
2.4140159e-09
2.5669866e-12
2.4140333e-09
-2.5121721e-12
2.4140168e-09
2.4294122e-12
2.4140516e-09
-2.9193743e-12
2.179609e-12
2.4282624e-09
1.9701579e-08
2.5054832e-09
-1.3012914e-09
2.5149981e-09
4.5611314e-10
2.5170207e-09
-1.3217279e-11
2.5178785e-09
-9.4627779e-13
2.5197789e-09
1.8034259e-12
2.5196113e-09
-1.5992097e-11
2.5198967e-09
1.3796491e-11
2.5199087e-09
-1.5975396e-11
2.5198909e-09
1.5045044e-11
2.5199021e-09
-1.4182276e-11
2.5198796e-09
1.3477321e-11
2.519894e-09
-1.2620697e-11
2.5198769e-09
1.1920652e-11
2.5198912e-09
-1.1207007e-11
2.519877e-09
1.0561109e-11
2.5198901e-09
-9.9476328e-12
2.5198777e-09
9.3705436e-12
2.5198895e-09
-8.8345379e-12
2.5198785e-09
8.3249073e-12
2.5198891e-09
-7.8543896e-12
2.5198793e-09
7.4064447e-12
2.5198887e-09
-6.9933373e-12
2.5198799e-09
6.6006926e-12
2.5198883e-09
-6.2385684e-12
2.5198804e-09
5.8952718e-12
2.519888e-09
-5.5786626e-12
2.5198809e-09
5.279418e-12
2.5198877e-09
-5.0035754e-12
2.5198813e-09
4.7437447e-12
2.5198875e-09
-4.5045315e-12
2.5198817e-09
4.2800829e-12
2.5198872e-09
-4.073903e-12
2.5198819e-09
3.8813514e-12
2.5198871e-09
-3.705095e-12
2.5198822e-09
3.5414452e-12
2.5198869e-09
-3.3924393e-12
2.5198824e-09
3.2551332e-12
2.5198868e-09
-3.1310939e-12
2.5198826e-09
3.0179544e-12
2.5198866e-09
-2.916943e-12
2.5198827e-09
2.8260615e-12
2.5198865e-09
-2.7464516e-12
2.5198829e-09
2.6763187e-12
2.5198864e-09
-2.614384e-12
2.5198827e-09
2.5706544e-12
2.5198851e-09
-2.5145454e-12
2.5198831e-09
2.4314197e-12
2.5198996e-09
-2.9358701e-12
2.1669299e-12
2.5330953e-09
1.9626233e-08
2.5992924e-09
-1.3674885e-09
2.6160936e-09
4.3931202e-10
2.618431e-09
-1.5554675e-11
2.6191327e-09
-1.6479744e-12
2.6211625e-09
-2.2639314e-13
2.6208273e-09
-1.5656956e-11
2.6212104e-09
1.3413398e-11
2.6211235e-09
-1.5888434e-11
2.6211915e-09
1.4977013e-11
2.6211192e-09
-1.4109991e-11
2.6211746e-09
1.342197e-11
2.6211152e-09
-1.2561369e-11
2.6211673e-09
1.1868554e-11
2.6211164e-09
-1.1156074e-11
2.6211635e-09
1.0513985e-11
2.6211188e-09
-9.9029202e-12
2.6211609e-09
9.3284861e-12
2.6211213e-09
-8.7949653e-12
2.6211587e-09
8.2875025e-12
2.6211236e-09
-7.819253e-12
2.6211568e-09
7.373183e-12
2.6211256e-09
-6.9620787e-12
2.6211552e-09
6.571081e-12
2.6211273e-09
-6.2107075e-12
2.6211537e-09
5.8688603e-12
2.6211288e-09
-5.5537739e-12
2.6211525e-09
5.2558019e-12
2.6211302e-09
-4.9812794e-12
2.6211513e-09
4.7225612e-12
2.6211313e-09
-4.4844878e-12
2.6211504e-09
4.2610059e-12
2.6211323e-09
-4.0558051e-12
2.6211495e-09
3.8640871e-12
2.6211331e-09
-3.6886653e-12
2.6211488e-09
3.5257268e-12
2.6211338e-09
-3.3774243e-12
2.6211482e-09
3.2407154e-12
2.6211344e-09
-3.1172585e-12
2.6211477e-09
3.004608e-12
2.6211349e-09
-2.9040643e-12
2.6211474e-09
2.813563e-12
2.6211352e-09
-2.734312e-12
2.6211471e-09
2.6644307e-12
2.6211354e-09
-2.6026883e-12
2.6211467e-09
2.5593905e-12
2.6211345e-09
-2.5023609e-12
2.6211465e-09
2.4194212e-12
2.6211451e-09
-2.934453e-12
2.1420141e-12
2.634522e-09
1.9449461e-08
2.6917656e-09
-1.4247321e-09
2.7128372e-09
4.1824041e-10
2.7152563e-09
-1.797378e-11
2.7158162e-09
-2.207885e-12
2.7179522e-09
-2.3624229e-12
2.7174459e-09
-1.5150573e-11
2.7179198e-09
1.293942e-11
2.7177368e-09
-1.5705449e-11
2.7178875e-09
1.4826397e-11
2.717735e-09
-1.3957487e-11
2.7178654e-09
1.3291572e-11
2.7177352e-09
-1.2431199e-11
2.7178539e-09
1.1749828e-11
2.7177402e-09
-1.1042362e-11
2.7178464e-09
1.0407785e-11
2.717746e-09
-9.8025156e-12
2.7178405e-09
9.2340021e-12
2.7177515e-09
-8.7059426e-12
2.7178354e-09
8.2035189e-12
2.7177563e-09
-7.7401564e-12
2.717831e-09
7.2984802e-12
2.7177607e-09
-6.8916808e-12
2.7178272e-09
6.5045359e-12
2.7177644e-09
-6.1479316e-12
2.7178238e-09
5.8094617e-12
2.7177677e-09
-5.4976636e-12
2.7178209e-09
5.2026439e-12
2.7177706e-09
-4.9309803e-12
2.7178183e-09
4.6748325e-12
2.717773e-09
-4.439234e-12
2.7178161e-09
4.2179781e-12
2.7177752e-09
-4.0149073e-12
2.7178142e-09
3.8251031e-12
2.717777e-09
-3.6515002e-12
2.7178125e-09
3.4901909e-12
2.7177785e-09
-3.3434243e-12
2.7178112e-09
3.2080831e-12
2.7177798e-09
-3.085902e-12
2.71781e-09
2.9743758e-12
2.7177808e-09
-2.874865e-12
2.7178091e-09
2.7852554e-12
2.7177816e-09
-2.7068099e-12
2.7178085e-09
2.6375767e-12
2.7177822e-09
-2.5763831e-12
2.7178078e-09
2.5337482e-12
2.7177817e-09
-2.4761824e-12
2.7178071e-09
2.3939534e-12
2.7177883e-09
-2.9156167e-12
2.1056633e-12
2.7355519e-09
1.9171659e-08
2.7784323e-09
-1.4676125e-09
2.8050564e-09
3.9161632e-10
2.8074622e-09
-2.0379522e-11
2.8079496e-09
-2.6953359e-12
2.8101433e-09
-4.556086e-12
2.8094673e-09
-1.4474607e-11
2.8100253e-09
1.2381473e-11
2.809749e-09
-1.5429212e-11
2.8099788e-09
1.4596638e-11
2.8097495e-09
-1.3728191e-11
2.809952e-09
1.3089094e-11
2.8097539e-09
-1.223315e-11
2.8099366e-09
1.156717e-11
2.8097627e-09
-1.086846e-11
2.8099255e-09
1.0244922e-11
2.8097717e-09
-9.6487027e-12
2.8099165e-09
9.0892383e-12
2.80978e-09
-8.5694937e-12
2.8099087e-09
8.0748639e-12
2.8097874e-09
-7.6188973e-12
2.8099019e-09
7.1840328e-12
2.8097939e-09
-6.7837428e-12
2.8098959e-09
6.4025683e-12
2.8097996e-09
-6.0516669e-12
2.8098907e-09
5.7184242e-12
2.8098046e-09
-5.4116061e-12
2.8098861e-09
5.1211505e-12
2.809809e-09
-4.8538202e-12
2.8098822e-09
4.6016419e-12
2.8098127e-09
-4.3697973e-12
2.8098787e-09
4.1519756e-12
2.8098159e-09
-3.9521377e-12
2.8098758e-09
3.7652837e-12
2.8098187e-09
-3.5944427e-12
2.8098733e-09
3.4356434e-12
2.809821e-09
-3.2912103e-12
2.8098712e-09