/*--------------------------------*- C++ -*----------------------------------*\
| =========                 |                                                 |
| \\      /  F ield         | OpenFOAM: The Open Source CFD Toolbox           |
|  \\    /   O peration     | Version:  2312                                  |
|   \\  /    A nd           | Website:  www.openfoam.com                      |
|    \\/     M anipulation  |                                                 |
\*---------------------------------------------------------------------------*/
FoamFile
{
    version     2.0;
    format      ascii;
    arch        "LSB;label=32;scalar=64";
    class       volSymmTensorField;
    location    "9";
    object      sigma;
}
// * * * * * * * * * * * * * * * * * * * * * * * * * * * * * * * * * * * * * //

dimensions      [0 2 -2 0 0 0 0];

internalField   nonuniform List<symmTensor> 
4000
(
(-1.4160952 -0.61911778 0 -0.23036236 0 0)
(-2.8603493 -0.30960047 0 -0.00083013153 0 0)
(-1.9744551 -0.25694126 0 -0.00027442485 0 0)
(-2.1390762 -0.26715222 0 -3.2754251e-05 0 0)
(-2.0106935 -0.2586882 0 4.4533508e-05 0 0)
(-2.101588 -0.2648942 0 -5.3960489e-05 0 0)
(-2.0163596 -0.25904858 0 4.9640189e-05 0 0)
(-2.0938258 -0.26438134 0 -4.7600242e-05 0 0)
(-2.0215436 -0.25940372 0 4.4837061e-05 0 0)
(-2.0891402 -0.2640636 0 -4.2336108e-05 0 0)
(-2.02563 -0.25968667 0 3.9800685e-05 0 0)
(-2.0852045 -0.26379493 0 -3.7520982e-05 0 0)
(-2.0291993 -0.25993396 0 3.528574e-05 0 0)
(-2.081765 -0.26355974 0 -3.3250642e-05 0 0)
(-2.0323726 -0.26015359 0 3.1288721e-05 0 0)
(-2.0787295 -0.26335203 0 -2.9486243e-05 0 0)
(-2.0351934 -0.2603486 0 2.7761613e-05 0 0)
(-2.0760419 -0.26316805 0 -2.6170554e-05 0 0)
(-2.0376996 -0.26052168 0 2.4654072e-05 0 0)
(-2.0736583 -0.26300486 0 -2.3252495e-05 0 0)
(-2.0399273 -0.26067537 0 2.1920061e-05 0 0)
(-2.0715415 -0.26285994 0 -2.068765e-05 0 0)
(-2.0419091 -0.26081194 0 1.9518598e-05 0 0)
(-2.0696592 -0.26273109 0 -1.8437151e-05 0 0)
(-2.0436746 -0.26093347 0 1.7413498e-05 0 0)
(-2.0679823 -0.26261636 0 -1.6466904e-05 0 0)
(-2.0452502 -0.26104178 0 1.5572934e-05 0 0)
(-2.0664854 -0.26251402 0 -1.4747017e-05 0 0)
(-2.0466595 -0.2611385 0 1.3969009e-05 0 0)
(-2.0651455 -0.26242251 0 -1.3251356e-05 0 0)
(-2.0479238 -0.26122512 0 1.2577368e-05 0 0)
(-2.0639421 -0.26234044 0 -1.1957164e-05 0 0)
(-2.0490622 -0.26130293 0 1.1376852e-05 0 0)
(-2.0628569 -0.26226656 0 -1.0844739e-05 0 0)
(-2.0500918 -0.26137313 0 1.0349208e-05 0 0)
(-2.0618732 -0.26219976 0 -9.8971562e-06 0 0)
(-2.0510281 -0.26143678 0 9.4788315e-06 0 0)
(-2.0609761 -0.26213902 0 -9.100039e-06 0 0)
(-2.0518855 -0.26149483 0 8.7525664e-06 0 0)
(-2.0601519 -0.26208342 0 -8.441385e-06 0 0)
(-2.0526768 -0.26154819 0 8.1595749e-06 0 0)
(-2.059388 -0.26203211 0 -7.9114838e-06 0 0)
(-2.053414 -0.26159764 0 7.691291e-06 0 0)
(-2.0586728 -0.26198431 0 -7.5031839e-06 0 0)
(-2.054108 -0.26164393 0 7.3414152e-06 0 0)
(-2.0579942 -0.26193924 0 -7.2120059e-06 0 0)
(-2.0547684 -0.26168765 0 7.1157318e-06 0 0)
(-2.0573559 -0.26189694 0 -6.9996408e-06 0 0)
(-2.0555012 -0.26173494 0 7.169316e-06 0 0)
(-2.0571567 -0.26188363 0 -6.9765826e-06 0 0)
(-1.2615357 -0.5710677 0 -0.21698933 0 0)
(-2.5230654 -0.29424399 0 -0.0029385608 0 0)
(-1.8938607 -0.25290652 0 -0.00084674709 0 0)
(-1.9752563 -0.25673805 0 -3.4281404e-05 0 0)
(-1.8685791 -0.24928017 0 3.0167144e-05 0 0)
(-1.9443299 -0.25488719 0 -5.9988018e-05 0 0)
(-1.8712754 -0.2494542 0 5.2879328e-05 0 0)
(-1.9376551 -0.25441965 0 -5.1915576e-05 0 0)
(-1.875622 -0.24977635 0 4.9139697e-05 0 0)
(-1.933681 -0.25412916 0 -4.6520792e-05 0 0)
(-1.8791252 -0.2500401 0 4.3711253e-05 0 0)
(-1.9303019 -0.25387882 0 -4.126318e-05 0 0)
(-1.8821857 -0.25027093 0 3.8778557e-05 0 0)
(-1.9273407 -0.25365889 0 -3.6559462e-05 0 0)
(-1.8849082 -0.25047607 0 3.4393981e-05 0 0)
(-1.9247271 -0.25346461 0 -3.241686e-05 0 0)
(-1.8873289 -0.25065825 0 3.0519487e-05 0 0)
(-1.9224132 -0.25329255 0 -2.8770823e-05 0 0)
(-1.8894801 -0.25081997 0 2.7104356e-05 0 0)
(-1.9203612 -0.25313992 0 -2.5563059e-05 0 0)
(-1.8913925 -0.25096357 0 2.4099401e-05 0 0)
(-1.9185391 -0.25300439 0 -2.2743992e-05 0 0)
(-1.8930941 -0.2510912 0 2.1459992e-05 0 0)
(-1.9169186 -0.25288389 0 -2.0270677e-05 0 0)
(-1.8946102 -0.25120476 0 1.9146465e-05 0 0)
(-1.9154749 -0.25277658 0 -1.8105572e-05 0 0)
(-1.8959636 -0.25130598 0 1.7123865e-05 0 0)
(-1.9141859 -0.25268085 0 -1.6215809e-05 0 0)
(-1.8971745 -0.25139639 0 1.5361543e-05 0 0)
(-1.913032 -0.25259524 0 -1.4572671e-05 0 0)
(-1.8982612 -0.25147736 0 1.3832751e-05 0 0)
(-1.9119953 -0.25251846 0 -1.3151179e-05 0 0)
(-1.89924 -0.25155012 0 1.2514275e-05 0 0)
(-1.9110601 -0.25244933 0 -1.1929735e-05 0 0)
(-1.9001258 -0.25161577 0 1.1386122e-05 0 0)
(-1.9102121 -0.2523868 0 -1.0889831e-05 0 0)
(-1.900932 -0.25167531 0 1.0431262e-05 0 0)
(-1.9094382 -0.25232993 0 -1.0015823e-05 0 0)
(-1.9016706 -0.25172965 0 9.6354405e-06 0 0)
(-1.9087268 -0.25227785 0 -9.2947957e-06 0 0)
(-1.902353 -0.25177961 0 8.9871232e-06 0 0)
(-1.9080669 -0.25222977 0 -8.7165863e-06 0 0)
(-1.9029895 -0.25182594 0 8.4776075e-06 0 0)
(-1.9074484 -0.25218496 0 -8.2746734e-06 0 0)
(-1.9035896 -0.25186934 0 8.1008185e-06 0 0)
(-1.9068607 -0.2521427 0 -7.9679843e-06 0 0)
(-1.9041604 -0.25191024 0 7.8746437e-06 0 0)
(-1.9062984 -0.25210222 0 -7.7104657e-06 0 0)
(-1.9047655 -0.2519512 0 8.2443218e-06 0 0)
(-1.9060407 -0.25208352 0 -7.5761598e-06 0 0)
(-1.1804244 -0.53919144 0 -0.20264569 0 0)
(-2.2882177 -0.27922 0 -0.0033864016 0 0)
(-1.811885 -0.24842536 0 -0.0012682455 0 0)
(-1.8732397 -0.25010594 0 -5.8731366e-05 0 0)
(-1.7758452 -0.24294236 0 1.410064e-05 0 0)
(-1.8429072 -0.24820704 0 -5.9514919e-05 0 0)
(-1.7770977 -0.24303095 0 5.018296e-05 0 0)
(-1.8366671 -0.24775673 0 -5.0091413e-05 0 0)
(-1.7809272 -0.24333391 0 4.7651097e-05 0 0)
(-1.8331039 -0.24748299 0 -4.5154589e-05 0 0)
(-1.7840775 -0.2435857 0 4.2407172e-05 0 0)
(-1.8300715 -0.24724497 0 -4.0078548e-05 0 0)
(-1.7868286 -0.24380588 0 3.763568e-05 0 0)
(-1.8274099 -0.24703537 0 -3.550218e-05 0 0)
(-1.7892756 -0.24400155 0 3.3386464e-05 0 0)
(-1.8250605 -0.24685019 0 -3.1475372e-05 0 0)
(-1.7914517 -0.24417534 0 2.9627428e-05 0 0)
(-1.8229808 -0.24668617 0 -2.7933683e-05 0 0)
(-1.7933859 -0.24432962 0 2.6312635e-05 0 0)
(-1.8211367 -0.24654069 0 -2.4818575e-05 0 0)
(-1.7951055 -0.24446663 0 2.3395542e-05 0 0)
(-1.8194992 -0.2464115 0 -2.2081238e-05 0 0)
(-1.7966357 -0.2445884 0 2.0833202e-05 0 0)
(-1.818043 -0.24629662 0 -1.9679759e-05 0 0)
(-1.7979993 -0.24469676 0 1.858722e-05 0 0)
(-1.8167457 -0.24619432 0 -1.7577617e-05 0 0)
(-1.7992167 -0.24479335 0 1.6623694e-05 0 0)
(-1.8155874 -0.24610304 0 -1.5742878e-05 0 0)
(-1.800306 -0.24487964 0 1.4912888e-05 0 0)
(-1.8145503 -0.2460214 0 -1.4147662e-05 0 0)
(-1.8012836 -0.24495693 0 1.3428856e-05 0 0)
(-1.8136186 -0.24594816 0 -1.2767735e-05 0 0)
(-1.8021644 -0.2450264 0 1.2149101e-05 0 0)
(-1.8127779 -0.2458822 0 -1.1582169e-05 0 0)
(-1.8029616 -0.2450891 0 1.1054276e-05 0 0)
(-1.8120154 -0.24582253 0 -1.0573074e-05 0 0)
(-1.8036872 -0.24514599 0 1.0127956e-05 0 0)
(-1.8113195 -0.24576822 0 -9.725403e-06 0 0)
(-1.8043523 -0.24519792 0 9.3564956e-06 0 0)
(-1.8106795 -0.24571847 0 -9.0268691e-06 0 0)
(-1.8049668 -0.24524569 0 8.7290547e-06 0 0)
(-1.8100855 -0.24567251 0 -8.4680958e-06 0 0)
(-1.8055403 -0.24529002 0 8.2378992e-06 0 0)
(-1.8095286 -0.24562966 0 -8.0439879e-06 0 0)
(-1.8060812 -0.24533157 0 7.8781322e-06 0 0)
(-1.808999 -0.24558921 0 -7.7577287e-06 0 0)
(-1.8065959 -0.24537073 0 7.6740389e-06 0 0)
(-1.8084894 -0.24555018 0 -7.5060298e-06 0 0)
(-1.8071338 -0.24540857 0 8.24989e-06 0 0)
(-1.8082161 -0.24553057 0 -7.7639456e-06 0 0)
(-1.1347479 -0.51400831 0 -0.18821884 0 0)
(-2.1018939 -0.26799296 0 -0.004062851 0 0)
(-1.7277312 -0.24381945 0 -0.0017343758 0 0)
(-1.7745197 -0.24350837 0 -8.5880286e-05 0 0)
(-1.6851046 -0.23662017 0 -1.0944061e-05 0 0)
(-1.7448414 -0.2415368 0 -5.3970947e-05 0 0)
(-1.6850025 -0.23660972 0 4.2647017e-05 0 0)
(-1.7388548 -0.24109768 0 -4.362923e-05 0 0)
(-1.6883377 -0.2368916 0 4.1907903e-05 0 0)
(-1.7356124 -0.24083969 0 -3.9737573e-05 0 0)
(-1.6911845 -0.23713139 0 3.731003e-05 0 0)
(-1.7328649 -0.24061364 0 -3.5314557e-05 0 0)
(-1.6936749 -0.23734096 0 3.312888e-05 0 0)
(-1.7304502 -0.24041409 0 -3.127272e-05 0 0)
(-1.6958896 -0.23752716 0 2.9396351e-05 0 0)
(-1.7283183 -0.24023775 0 -2.7720436e-05 0 0)
(-1.6978594 -0.23769257 0 2.6088938e-05 0 0)
(-1.7264315 -0.24008156 0 -2.4599324e-05 0 0)
(-1.6996102 -0.23783941 0 2.3170518e-05 0 0)
(-1.7247586 -0.23994302 0 -2.185527e-05 0 0)
(-1.701167 -0.23796982 0 2.060172e-05 0 0)
(-1.7232734 -0.23981998 0 -1.944437e-05 0 0)
(-1.7025524 -0.23808573 0 1.8345208e-05 0 0)
(-1.7219527 -0.23971057 0 -1.7329424e-05 0 0)
(-1.703787 -0.2381889 0 1.6367297e-05 0 0)
(-1.7207764 -0.23961314 0 -1.5478173e-05 0 0)
(-1.7048892 -0.23828087 0 1.4638158e-05 0 0)
(-1.7197261 -0.23952619 0 -1.3862461e-05 0 0)
(-1.7058755 -0.23836304 0 1.3131609e-05 0 0)
(-1.7187859 -0.2394484 0 -1.2457727e-05 0 0)
(-1.7067608 -0.23843666 0 1.1824809e-05 0 0)
(-1.7179413 -0.2393786 0 -1.124264e-05 0 0)
(-1.7075583 -0.23850285 0 1.0697969e-05 0 0)
(-1.7171793 -0.23931572 0 -1.0198803e-05 0 0)
(-1.7082802 -0.23856261 0 9.7340979e-06 0 0)
(-1.7164882 -0.23925881 0 -9.3105198e-06 0 0)
(-1.7089372 -0.23861685 0 8.9188118e-06 0 0)
(-1.7158575 -0.23920701 0 -8.5646477e-06 0 0)
(-1.7095394 -0.2386664 0 8.2402372e-06 0 0)
(-1.7152776 -0.23915951 0 -7.9505593e-06 0 0)
(-1.7100959 -0.238712 0 7.6891e-06 0 0)
(-1.7147395 -0.23911561 0 -7.4603596e-06 0 0)
(-1.7106151 -0.23875435 0 7.2591123e-06 0 0)
(-1.7142349 -0.23907465 0 -7.0905742e-06 0 0)
(-1.711105 -0.23879408 0 6.9462844e-06 0 0)
(-1.7137552 -0.23903596 0 -6.847745e-06 0 0)
(-1.711571 -0.23883155 0 6.7793167e-06 0 0)
(-1.7132912 -0.23899832 0 -6.6014428e-06 0 0)
(-1.7120499 -0.23886646 0 7.5671259e-06 0 0)
(-1.7130029 -0.23897749 0 -7.15766e-06 0 0)
(-1.0856573 -0.48439409 0 -0.17108458 0 0)
(-1.9175442 -0.25630133 0 -0.0044702826 0 0)
(-1.6365938 -0.23845198 0 -0.0021186836 0 0)
(-1.6779136 -0.23692669 0 -0.00012697247 0 0)
(-1.5960625 -0.23027615 0 -3.7666294e-05 0 0)
(-1.6497632 -0.23487963 0 -4.8884023e-05 0 0)
(-1.5950983 -0.23017977 0 3.5325474e-05 0 0)
(-1.6439841 -0.23444726 0 -3.7186814e-05 0 0)
(-1.5979819 -0.23044139 0 3.6246321e-05 0 0)
(-1.641001 -0.23420306 0 -3.4330589e-05 0 0)
(-1.6005598 -0.23067003 0 3.2244169e-05 0 0)
(-1.6384993 -0.23398813 0 -3.0565262e-05 0 0)
(-1.6028245 -0.23086983 0 2.8641851e-05 0 0)
(-1.6362996 -0.23379797 0 -2.7058077e-05 0 0)
(-1.6048384 -0.23104729 0 2.5422464e-05 0 0)
(-1.6343573 -0.23362987 0 -2.3979127e-05 0 0)
(-1.6066296 -0.23120493 0 2.2564515e-05 0 0)
(-1.6326385 -0.23348099 0 -2.1277228e-05 0 0)
(-1.6082219 -0.23134488 0 2.0040744e-05 0 0)
(-1.6311148 -0.23334893 0 -1.8902923e-05 0 0)
(-1.6096377 -0.23146918 0 1.7818757e-05 0 0)
(-1.6297622 -0.23323165 0 -1.6817255e-05 0 0)
(-1.6108977 -0.23157967 0 1.5866768e-05 0 0)
(-1.6285598 -0.23312735 0 -1.4987739e-05 0 0)
(-1.6120206 -0.23167801 0 1.4155765e-05 0 0)
(-1.6274888 -0.23303446 0 -1.3386369e-05 0 0)
(-1.613023 -0.23176569 0 1.2659967e-05 0 0)
(-1.6265328 -0.23295156 0 -1.1988752e-05 0 0)
(-1.61392 -0.23184404 0 1.1356722e-05 0 0)
(-1.6256771 -0.23287739 0 -1.0773633e-05 0 0)
(-1.6147251 -0.23191424 0 1.0226275e-05 0 0)
(-1.6249085 -0.23281082 0 -9.7225647e-06 0 0)
(-1.6154503 -0.23197738 0 9.2515176e-06 0 0)
(-1.6242152 -0.23275084 0 -8.8196525e-06 0 0)
(-1.6161067 -0.23203439 0 8.417777e-06 0 0)
(-1.6235866 -0.23269653 0 -8.0513575e-06 0 0)
(-1.616704 -0.23208616 0 7.7126597e-06 0 0)
(-1.623013 -0.23264708 0 -7.4063759e-06 0 0)
(-1.6172514 -0.23213346 0 7.1259813e-06 0 0)
(-1.6224857 -0.23260173 0 -6.8756324e-06 0 0)
(-1.6177571 -0.23217701 0 6.6498848e-06 0 0)
(-1.6219966 -0.23255979 0 -6.4525081e-06 0 0)
(-1.6182289 -0.23221748 0 6.2792386e-06 0 0)
(-1.6215382 -0.23252063 0 -6.1346622e-06 0 0)
(-1.6186739 -0.23225548 0 6.0103535e-06 0 0)
(-1.6211025 -0.23248363 0 -5.9308364e-06 0 0)
(-1.619097 -0.23229135 0 5.8725545e-06 0 0)
(-1.6206797 -0.2324474 0 -5.686366e-06 0 0)
(-1.6195254 -0.23232381 0 6.8101494e-06 0 0)
(-1.6203855 -0.23242574 0 -6.4819791e-06 0 0)
(-1.0531442 -0.4638452 0 -0.15942969 0 0)
(-1.7459586 -0.2452292 0 -0.0048615331 0 0)
(-1.543773 -0.23261101 0 -0.0024195656 0 0)
(-1.5828313 -0.23032112 0 -0.00018519112 0 0)
(-1.5087864 -0.22391354 0 -6.6495583e-05 0 0)
(-1.5574441 -0.22822951 0 -4.5663477e-05 0 0)
(-1.5074871 -0.22374442 0 2.9058883e-05 0 0)
(-1.5519352 -0.22780302 0 -3.1715354e-05 0 0)
(-1.5099748 -0.22398641 0 3.1534114e-05 0 0)
(-1.5491757 -0.22757121 0 -2.9760764e-05 0 0)
(-1.5123065 -0.22420436 0 2.7988312e-05 0 0)
(-1.546892 -0.22736675 0 -2.6564469e-05 0 0)
(-1.5143685 -0.22439488 0 2.4865098e-05 0 0)
(-1.544885 -0.22718551 0 -2.3509055e-05 0 0)
(-1.5162026 -0.22456405 0 2.2077135e-05 0 0)
(-1.5431128 -0.22702524 0 -2.0828666e-05 0 0)
(-1.5178338 -0.22471431 0 1.9597597e-05 0 0)
(-1.5415446 -0.22688329 0 -1.8479765e-05 0 0)
(-1.519284 -0.22484771 0 1.7406056e-05 0 0)
(-1.5401547 -0.22675739 0 -1.6416847e-05 0 0)
(-1.5205735 -0.2249662 0 1.5476005e-05 0 0)
(-1.5389211 -0.22664557 0 -1.4605079e-05 0 0)
(-1.5217211 -0.22507153 0 1.3780342e-05 0 0)
(-1.5378246 -0.22654613 0 -1.3015928e-05 0 0)
(-1.5227439 -0.22516528 0 1.2293993e-05 0 0)
(-1.5368481 -0.22645756 0 -1.1624965e-05 0 0)
(-1.5236569 -0.22524887 0 1.0994581e-05 0 0)
(-1.5359766 -0.22637851 0 -1.0410969e-05 0 0)
(-1.5244739 -0.22532358 0 9.8624264e-06 0 0)
(-1.5351966 -0.22630777 0 -9.355468e-06 0 0)
(-1.5252072 -0.22539053 0 8.880365e-06 0 0)
(-1.5344961 -0.22624428 0 -8.4424399e-06 0 0)
(-1.5258676 -0.22545075 0 8.0335389e-06 0 0)
(-1.5338643 -0.22618706 0 -7.6580898e-06 0 0)
(-1.5264653 -0.22550514 0 7.3092165e-06 0 0)
(-1.5332917 -0.22613524 0 -6.9906804e-06 0 0)
(-1.5270092 -0.22555454 0 6.6966584e-06 0 0)
(-1.5327693 -0.22608804 0 -6.430432e-06 0 0)
(-1.5275075 -0.2255997 0 6.1870665e-06 0 0)
(-1.5322891 -0.22604474 0 -5.9695281e-06 0 0)
(-1.5279678 -0.22564129 0 5.7737087e-06 0 0)
(-1.5318439 -0.22600468 0 -5.6023283e-06 0 0)
(-1.528397 -0.22567995 0 5.4522932e-06 0 0)
(-1.5314267 -0.22596726 0 -5.3272195e-06 0 0)
(-1.5288017 -0.22571627 0 5.2190598e-06 0 0)
(-1.5310305 -0.2259319 0 -5.1543697e-06 0 0)
(-1.5291865 -0.22575059 0 5.1020232e-06 0 0)
(-1.5306451 -0.22589708 0 -4.9075863e-06 0 0)
(-1.5295704 -0.2257809 0 6.1407534e-06 0 0)
(-1.5303506 -0.22587475 0 -5.8716722e-06 0 0)
(-1.012328 -0.43667936 0 -0.14403007 0 0)
(-1.5844607 -0.23416618 0 -0.005021974 0 0)
(-1.4508616 -0.22624253 0 -0.0025865851 0 0)
(-1.4891173 -0.22369387 0 -0.00026773373 0 0)
(-1.4232242 -0.21753579 0 -0.00010079147 0 0)
(-1.4677643 -0.22158522 0 -4.5021585e-05 0 0)
(-1.4221931 -0.21730617 0 2.3246938e-05 0 0)
(-1.4626497 -0.22116347 0 -2.7063301e-05 0 0)
(-1.424359 -0.21752845 0 2.7515875e-05 0 0)
(-1.4600931 -0.22094261 0 -2.5821167e-05 0 0)
(-1.4264644 -0.21773581 0 2.4340919e-05 0 0)
(-1.4580048 -0.22074811 0 -2.3124962e-05 0 0)
(-1.4283418 -0.21791738 0 2.1621249e-05 0 0)
(-1.4561726 -0.22057545 0 -2.0459946e-05 0 0)
(-1.4300128 -0.21807854 0 1.9203083e-05 0 0)
(-1.4545549 -0.22042274 0 -1.8122128e-05 0 0)
(-1.431499 -0.21822168 0 1.7048681e-05 0 0)
(-1.4531236 -0.22028748 0 -1.6076485e-05 0 0)
(-1.4328203 -0.21834877 0 1.5142618e-05 0 0)
(-1.4518553 -0.22016751 0 -1.4281093e-05 0 0)
(-1.4339954 -0.21846165 0 1.3463402e-05 0 0)
(-1.4507297 -0.22006097 0 -1.270465e-05 0 0)
(-1.4350412 -0.218562 0 1.1987965e-05 0 0)
(-1.4497293 -0.21996621 0 -1.1322005e-05 0 0)
(-1.4359731 -0.21865132 0 1.069462e-05 0 0)
(-1.4488385 -0.21988181 0 -1.0111803e-05 0 0)
(-1.4368052 -0.21873098 0 9.5639164e-06 0 0)
(-1.4480436 -0.21980648 0 -9.0555479e-06 0 0)
(-1.4375497 -0.21880217 0 8.5787302e-06 0 0)
(-1.4473323 -0.21973906 0 -8.1371559e-06 0 0)
(-1.4382178 -0.21886598 0 7.7241218e-06 0 0)
(-1.4466936 -0.21967853 0 -7.3426885e-06 0 0)
(-1.4388197 -0.21892338 0 6.9871646e-06 0 0)
(-1.4461176 -0.21962398 0 -6.660151e-06 0 0)
(-1.4393642 -0.21897524 0 6.3567881e-06 0 0)
(-1.4455956 -0.21957457 0 -6.0793457e-06 0 0)
(-1.4398597 -0.21902235 0 5.823664e-06 0 0)
(-1.4451195 -0.21952955 0 -5.5917883e-06 0 0)
(-1.4403136 -0.21906542 0 5.3801658e-06 0 0)
(-1.444682 -0.21948823 0 -5.1907174e-06 0 0)
(-1.4407328 -0.21910511 0 5.0204918e-06 0 0)
(-1.4442765 -0.21945 0 -4.8712829e-06 0 0)
(-1.4411236 -0.21914202 0 4.7410035e-06 0 0)
(-1.4438966 -0.21941427 0 -4.6323691e-06 0 0)
(-1.441492 -0.21917672 0 4.5377453e-06 0 0)
(-1.4435361 -0.21938049 0 -4.4851597e-06 0 0)
(-1.4418421 -0.21920952 0 4.4364267e-06 0 0)
(-1.4431847 -0.2193471 0 -4.2357989e-06 0 0)
(-1.4421865 -0.21923793 0 5.5373365e-06 0 0)
(-1.4428942 -0.21932427 0 -5.3179921e-06 0 0)
(-0.98495068 -0.41693657 0 -0.13279937 0 0)
(-1.4366619 -0.22418536 0 -0.005344196 0 0)
(-1.3603822 -0.21960253 0 -0.0026594139 0 0)
(-1.3968304 -0.21703368 0 -0.00036928759 0 0)
(-1.3392804 -0.21111773 0 -0.00013526599 0 0)
(-1.380554 -0.21493302 0 -4.5040455e-05 0 0)
(-1.3391674 -0.21086062 0 1.7958367e-05 0 0)
(-1.3760681 -0.21452658 0 -2.2926007e-05 0 0)
(-1.3411445 -0.21106746 0 2.3940944e-05 0 0)
(-1.3737274 -0.21431679 0 -2.2290895e-05 0 0)
(-1.3430527 -0.2112647 0 2.1085022e-05 0 0)
(-1.3718187 -0.21413187 0 -2.0046937e-05 0 0)
(-1.3447623 -0.21143761 0 1.8720709e-05 0 0)
(-1.3701459 -0.21396752 0 -1.7732924e-05 0 0)
(-1.3462848 -0.21159103 0 1.663251e-05 0 0)
(-1.3686691 -0.21382211 0 -1.570171e-05 0 0)
(-1.3476392 -0.21172729 0 1.4768923e-05 0 0)
(-1.3673626 -0.21369333 0 -1.3927285e-05 0 0)
(-1.3488432 -0.21184827 0 1.3118253e-05 0 0)
(-1.3662051 -0.2135791 0 -1.2371148e-05 0 0)
(-1.3499141 -0.21195573 0 1.1663421e-05 0 0)
(-1.365178 -0.21347766 0 -1.1005158e-05 0 0)
(-1.3508671 -0.21205126 0 1.0384972e-05 0 0)
(-1.3642652 -0.21338744 0 -9.807191e-06 0 0)
(-1.3517165 -0.21213629 0 9.2642537e-06 0 0)
(-1.3634526 -0.21330707 0 -8.758637e-06 0 0)
(-1.3524748 -0.21221213 0 8.2844388e-06 0 0)
(-1.3627275 -0.21323533 0 -7.8434353e-06 0 0)
(-1.3531534 -0.21227992 0 7.4306878e-06 0 0)
(-1.3620787 -0.21317113 0 -7.047642e-06 0 0)
(-1.3537623 -0.21234069 0 6.6900531e-06 0 0)
(-1.3614962 -0.21311348 0 -6.3591796e-06 0 0)
(-1.3543108 -0.21239537 0 6.0513339e-06 0 0)
(-1.360971 -0.21306151 0 -5.7676603e-06 0 0)
(-1.3548071 -0.21244477 0 5.5049422e-06 0 0)
(-1.3604951 -0.21301443 0 -5.2642584e-06 0 0)
(-1.3552586 -0.21248966 0 5.0428046e-06 0 0)
(-1.3600611 -0.21297152 0 -4.8416379e-06 0 0)
(-1.3556721 -0.21253072 0 4.6583302e-06 0 0)
(-1.3596624 -0.21293213 0 -4.4939645e-06 0 0)
(-1.3560539 -0.21256856 0 4.3465262e-06 0 0)
(-1.3592929 -0.21289567 0 -4.217063e-06 0 0)
(-1.3564099 -0.21260376 0 4.104297e-06 0 0)
(-1.3589469 -0.21286157 0 -4.0101768e-06 0 0)
(-1.3567453 -0.21263688 0 3.9274737e-06 0 0)
(-1.3586187 -0.21282934 0 -3.8852178e-06 0 0)
(-1.357064 -0.21266822 0 3.8389916e-06 0 0)
(-1.3582984 -0.21279736 0 -3.6344766e-06 0 0)
(-1.3573733 -0.21269492 0 4.9709309e-06 0 0)
(-1.3580151 -0.21277421 0 -4.7991076e-06 0 0)
(-0.95730375 -0.3959326 0 -0.12110445 0 0)
(-1.3002628 -0.21407614 0 -0.0053781918 0 0)
(-1.2723385 -0.21233557 0 -0.0025398684 0 0)
(-1.3064972 -0.21041366 0 -0.00049881847 0 0)
(-1.2575474 -0.20471513 0 -0.0001722248 0 0)
(-1.2959343 -0.2082834 0 -4.5781014e-05 0 0)
(-1.2584766 -0.20440994 0 1.3202258e-05 0 0)
(-1.2921732 -0.20789196 0 -1.9120219e-05 0 0)
(-1.2603453 -0.2046031 0 2.0742023e-05 0 0)
(-1.2900578 -0.20769349 0 -1.9068776e-05 0 0)
(-1.2620854 -0.20479095 0 1.8140151e-05 0 0)
(-1.2883179 -0.20751797 0 -1.7249261e-05 0 0)
(-1.2636436 -0.20495557 0 1.6089602e-05 0 0)
(-1.2867916 -0.20736169 0 -1.525729e-05 0 0)
(-1.2650311 -0.20510153 0 1.429943e-05 0 0)
(-1.2854438 -0.20722335 0 -1.3504946e-05 0 0)
(-1.2662651 -0.20523114 0 1.2699664e-05 0 0)
(-1.2842516 -0.20710083 0 -1.1976759e-05 0 0)
(-1.2673622 -0.20534621 0 1.1280831e-05 0 0)
(-1.2831954 -0.20699215 0 -1.0637779e-05 0 0)
(-1.2683379 -0.20544843 0 1.0029692e-05 0 0)
(-1.2822583 -0.20689564 0 -9.4627946e-06 0 0)
(-1.2692064 -0.2055393 0 8.9300562e-06 0 0)
(-1.2814256 -0.2068098 0 -8.4324285e-06 0 0)
(-1.2699804 -0.2056202 0 7.9660261e-06 0 0)
(-1.2806844 -0.20673334 0 -7.5305679e-06 0 0)
(-1.2706715 -0.20569235 0 7.1231588e-06 0 0)
(-1.280023 -0.20666507 0 -6.7433651e-06 0 0)
(-1.2712898 -0.20575685 0 6.3886916e-06 0 0)
(-1.2794314 -0.20660397 0 -6.0588173e-06 0 0)
(-1.2718448 -0.20581467 0 5.7514854e-06 0 0)
(-1.2789002 -0.20654911 0 -5.4665357e-06 0 0)
(-1.2723446 -0.20586671 0 5.201905e-06 0 0)
(-1.2784214 -0.20649964 0 -4.9575889e-06 0 0)
(-1.2727968 -0.20591374 0 4.7317049e-06 0 0)
(-1.2779875 -0.20645481 0 -4.5243913e-06 0 0)
(-1.2732081 -0.20595648 0 4.3339455e-06 0 0)
(-1.277592 -0.20641395 0 -4.1606416e-06 0 0)
(-1.2735849 -0.20599558 0 4.0029655e-06 0 0)
(-1.2772286 -0.20637643 0 -3.8613332e-06 0 0)
(-1.2739327 -0.20603163 0 3.7344881e-06 0 0)
(-1.276892 -0.20634168 0 -3.6228795e-06 0 0)
(-1.2742568 -0.20606519 0 3.5258786e-06 0 0)
(-1.2765769 -0.20630918 0 -3.4447806e-06 0 0)
(-1.2745623 -0.20609676 0 3.3727714e-06 0 0)
(-1.2762781 -0.20627845 0 -3.3394176e-06 0 0)
(-1.2748524 -0.20612668 0 3.2951085e-06 0 0)
(-1.2759863 -0.20624786 0 -3.0888435e-06 0 0)
(-1.2751302 -0.20615184 0 4.4317411e-06 0 0)
(-1.2757123 -0.20622454 0 -4.3093144e-06 0 0)
(-0.9346314 -0.37212792 0 -0.10664401 0 0)
(-1.1788147 -0.20464693 0 -0.0053299389 0 0)
(-1.1845124 -0.20514315 0 -0.0025090011 0 0)
(-1.2215093 -0.2036151 0 -0.00051794312 0 0)
(-1.178662 -0.19824313 0 -0.00018264573 0 0)
(-1.2142328 -0.20163214 0 -4.2552285e-05 0 0)
(-1.1802663 -0.19795599 0 9.4675133e-06 0 0)
(-1.2110046 -0.20126165 0 -1.5630742e-05 0 0)
(-1.1820011 -0.19813647 0 1.7825561e-05 0 0)
(-1.2090799 -0.20107319 0 -1.6143762e-05 0 0)
(-1.1835809 -0.19831481 0 1.5459931e-05 0 0)
(-1.2074914 -0.20090649 0 -1.4702846e-05 0 0)
(-1.1849991 -0.19847132 0 1.3695281e-05 0 0)
(-1.2060987 -0.20075795 0 -1.3004164e-05 0 0)
(-1.1862627 -0.19861006 0 1.2176049e-05 0 0)
(-1.2048692 -0.20062644 0 -1.1505818e-05 0 0)
(-1.1873865 -0.19873325 0 1.0816381e-05 0 0)
(-1.2037817 -0.20050996 0 -1.0201759e-05 0 0)
(-1.1883857 -0.19884262 0 9.6085862e-06 0 0)
(-1.2028183 -0.20040665 0 -9.0604069e-06 0 0)
(-1.1892744 -0.19893977 0 8.5428571e-06 0 0)
(-1.2019638 -0.20031489 0 -8.0592401e-06 0 0)
(-1.1900655 -0.19902614 0 7.6059704e-06 0 0)
(-1.2012045 -0.20023329 0 -7.181387e-06 0 0)
(-1.1907705 -0.19910304 0 6.7845426e-06 0 0)
(-1.2005286 -0.20016059 0 -6.4130075e-06 0 0)
(-1.1914 -0.19917163 0 6.0663034e-06 0 0)
(-1.1999257 -0.20009569 0 -5.7422696e-06 0 0)
(-1.1919633 -0.19923295 0 5.4403828e-06 0 0)
(-1.1993864 -0.20003759 0 -5.1589378e-06 0 0)
(-1.1924687 -0.19928794 0 4.8972882e-06 0 0)
(-1.1989022 -0.19998541 0 -4.6541596e-06 0 0)
(-1.192924 -0.19933742 0 4.4288089e-06 0 0)
(-1.1984659 -0.19993836 0 -4.2203268e-06 0 0)
(-1.1933359 -0.19938215 0 4.0279187e-06 0 0)
(-1.1980705 -0.19989571 0 -3.8509788e-06 0 0)
(-1.1937106 -0.19942282 0 3.6887052e-06 0 0)
(-1.1977101 -0.19985683 0 -3.5407492e-06 0 0)
(-1.1940536 -0.19946002 0 3.4063452e-06 0 0)
(-1.1973792 -0.19982112 0 -3.2853743e-06 0 0)
(-1.1943703 -0.19949434 0 3.1771986e-06 0 0)
(-1.1970726 -0.19978803 0 -3.0817842e-06 0 0)
(-1.1946654 -0.19952629 0 2.9990257e-06 0 0)
(-1.1967857 -0.19975708 0 -2.9296565e-06 0 0)
(-1.1949435 -0.19955638 0 2.8672989e-06 0 0)
(-1.1965138 -0.1997278 0 -2.8415991e-06 0 0)
(-1.1952075 -0.19958491 0 2.7989311e-06 0 0)
(-1.196248 -0.1996986 0 -2.5928352e-06 0 0)
(-1.195457 -0.19960868 0 3.917804e-06 0 0)
(-1.1959851 -0.19967523 0 -3.84835e-06 0 0)
(-0.92050883 -0.35693512 0 -0.09806516 0 0)
(-1.0736559 -0.19554298 0 -0.0051765372 0 0)
(-1.0981316 -0.19796698 0 -0.0025095303 0 0)
(-1.1420471 -0.19664775 0 -0.00042154996 0 0)
(-1.1026041 -0.19166475 0 -0.00015612396 0 0)
(-1.1353837 -0.19495651 0 -2.9786008e-05 0 0)
(-1.1045054 -0.19148805 0 8.7546708e-06 0 0)
(-1.1325187 -0.19463115 0 -1.1738884e-05 0 0)
(-1.1061087 -0.19166588 0 1.5372439e-05 0 0)
(-1.1307724 -0.19445507 0 -1.3418651e-05 0 0)
(-1.1075468 -0.19183605 0 1.3035849e-05 0 0)
(-1.1293259 -0.19429722 0 -1.2374121e-05 0 0)
(-1.1088383 -0.19198488 0 1.1514506e-05 0 0)
(-1.128057 -0.19415621 0 -1.0948776e-05 0 0)
(-1.1099886 -0.19211668 0 1.0240146e-05 0 0)
(-1.1269364 -0.19403131 0 -9.6829369e-06 0 0)
(-1.1110115 -0.19223367 0 9.099129e-06 0 0)
(-1.1259452 -0.19392067 0 -8.5833851e-06 0 0)
(-1.1119209 -0.19233753 0 8.0837596e-06 0 0)
(-1.1250673 -0.19382254 0 -7.6222505e-06 0 0)
(-1.1127298 -0.19242979 0 7.1871118e-06 0 0)
(-1.1242885 -0.19373538 0 -6.7795644e-06 0 0)
(-1.1134498 -0.19251182 0 6.3986358e-06 0 0)
(-1.1235967 -0.19365787 0 -6.0407577e-06 0 0)
(-1.1140916 -0.19258486 0 5.707239e-06 0 0)
(-1.122981 -0.19358881 0 -5.3940676e-06 0 0)
(-1.1146646 -0.19265001 0 5.102635e-06 0 0)
(-1.1224317 -0.19352715 0 -4.8295025e-06 0 0)
(-1.1151773 -0.19270826 0 4.5756814e-06 0 0)
(-1.1219404 -0.19347195 0 -4.3384386e-06 0 0)
(-1.1156374 -0.1927605 0 4.1183879e-06 0 0)
(-1.1214994 -0.19342236 0 -3.9134237e-06 0 0)
(-1.1160518 -0.19280752 0 3.7238419e-06 0 0)
(-1.121102 -0.19337765 0 -3.5480545e-06 0 0)
(-1.1164267 -0.19285003 0 3.3861275e-06 0 0)
(-1.120742 -0.19333711 0 -3.2368929e-06 0 0)
(-1.1167677 -0.19288869 0 3.100265e-06 0 0)
(-1.1204139 -0.19330014 0 -2.9754205e-06 0 0)
(-1.11708 -0.19292406 0 2.8621899e-06 0 0)
(-1.1201126 -0.19326618 0 -2.7600424e-06 0 0)
(-1.1173682 -0.1929567 0 2.6688316e-06 0 0)
(-1.1198335 -0.19323471 0 -2.5881467e-06 0 0)
(-1.1176366 -0.1929871 0 2.5182922e-06 0 0)
(-1.1195725 -0.19320525 0 -2.4595298e-06 0 0)
(-1.1178895 -0.19301574 0 2.4059334e-06 0 0)
(-1.1193253 -0.19317738 0 -2.3868054e-06 0 0)
(-1.1181297 -0.19304293 0 2.3457471e-06 0 0)
(-1.1190835 -0.19314954 0 -2.1415961e-06 0 0)
(-1.1183537 -0.19306542 0 3.4278916e-06 0 0)
(-1.1188327 -0.19312625 0 -3.4158863e-06 0 0)
(-0.90329046 -0.33450882 0 -0.084834263 0 0)
(-0.98870331 -0.18689333 0 -0.0044417549 0 0)
(-1.0132302 -0.19022066 0 -0.0026570634 0 0)
(-1.0624021 -0.18989682 0 -0.0004781972 0 0)
(-1.0286001 -0.18519738 0 -0.00016184529 0 0)
(-1.0590185 -0.18831578 0 -2.6424806e-05 0 0)
(-1.0311525 -0.18502794 0 6.0656317e-06 0 0)
(-1.0566966 -0.18800704 0 -8.7153393e-06 0 0)
(-1.0326856 -0.18519388 0 1.2993437e-05 0 0)
(-1.0551304 -0.18783998 0 -1.096557e-05 0 0)
(-1.0339969 -0.18535514 0 1.0809991e-05 0 0)
(-1.0538146 -0.18769026 0 -1.0247314e-05 0 0)
(-1.0351711 -0.1854964 0 9.5197435e-06 0 0)
(-1.052659 -0.18755645 0 -9.0696896e-06 0 0)
(-1.036217 -0.18562146 0 8.4698454e-06 0 0)
(-1.0516385 -0.18743792 0 -8.0163656e-06 0 0)
(-1.037147 -0.18573246 0 7.5288444e-06 0 0)
(-1.050736 -0.18733291 0 -7.1037916e-06 0 0)
(-1.0379738 -0.18583101 0 6.6894745e-06 0 0)
(-1.0499367 -0.18723978 0 -6.3074191e-06 0 0)
(-1.0387093 -0.18591855 0 5.9474575e-06 0 0)
(-1.0492278 -0.18715706 0 -5.609618e-06 0 0)
(-1.0393641 -0.18599638 0 5.2946952e-06 0 0)
(-1.048598 -0.18708349 0 -4.9979254e-06 0 0)
(-1.0399477 -0.18606569 0 4.7221967e-06 0 0)
(-1.0480376 -0.18701795 0 -4.4624788e-06 0 0)
(-1.0404687 -0.18612752 0 4.2214935e-06 0 0)
(-1.0475377 -0.18695942 0 -3.9949703e-06 0 0)
(-1.040935 -0.18618281 0 3.7850253e-06 0 0)
(-1.0470906 -0.18690702 0 -3.5882502e-06 0 0)
(-1.0413535 -0.18623239 0 3.4061759e-06 0 0)
(-1.0466893 -0.18685995 0 -3.2361457e-06 0 0)
(-1.0417303 -0.18627703 0 3.0792194e-06 0 0)
(-1.0463277 -0.18681748 0 -2.9333538e-06 0 0)
(-1.0420712 -0.1863174 0 2.7992537e-06 0 0)
(-1.0460002 -0.18677899 0 -2.675369e-06 0 0)
(-1.0423813 -0.18635411 0 2.5621497e-06 0 0)
(-1.0457017 -0.18674388 0 -2.4584441e-06 0 0)
(-1.0426652 -0.18638771 0 2.3645316e-06 0 0)
(-1.0454278 -0.18671161 0 -2.2795901e-06 0 0)
(-1.0429272 -0.18641873 0 2.2038423e-06 0 0)
(-1.045174 -0.1866817 0 -2.1366051e-06 0 0)
(-1.0431712 -0.18644762 0 2.0784836e-06 0 0)
(-1.0449367 -0.18665369 0 -2.0293619e-06 0 0)
(-1.043401 -0.18647485 0 1.9837667e-06 0 0)
(-1.0447122 -0.18662719 0 -1.9702779e-06 0 0)
(-1.0436193 -0.18650074 0 1.9309762e-06 0 0)
(-1.0444924 -0.18660069 0 -1.7304214e-06 0 0)
(-1.0438202 -0.18652206 0 2.960541e-06 0 0)
(-1.0442545 -0.18657757 0 -3.0109857e-06 0 0)
(-0.89050818 -0.32141522 0 -0.077969087 0 0)
(-0.90930916 -0.17885383 0 -0.0041599145 0 0)
(-0.93753585 -0.18270982 0 -0.002454083 0 0)
(-0.98651158 -0.18290927 0 -0.00042217602 0 0)
(-0.95727927 -0.17863515 0 -0.0001376391 0 0)
(-0.98528679 -0.18164252 0 -1.5464188e-05 0 0)
(-0.96019804 -0.17855067 0 5.8765984e-06 0 0)
(-0.98349461 -0.18138033 0 -5.2906461e-06 0 0)
(-0.96171578 -0.17871707 0 1.1009929e-05 0 0)
(-0.98212905 -0.18122637 0 -8.6576781e-06 0 0)
(-0.96293068 -0.17887153 0 8.7892978e-06 0 0)
(-0.98094464 -0.18108523 0 -8.2906066e-06 0 0)
(-0.96400265 -0.1790058 0 7.6933969e-06 0 0)
(-0.9798965 -0.18095854 0 -7.3461189e-06 0 0)
(-0.96495374 -0.17912443 0 6.8471256e-06 0 0)
(-0.97896915 -0.18084618 0 -6.4885082e-06 0 0)
(-0.96579858 -0.17922967 0 6.0892115e-06 0 0)
(-0.97814858 -0.18074663 0 -5.7474809e-06 0 0)
(-0.96654956 -0.17932309 0 5.4111792e-06 0 0)
(-0.9774218 -0.18065832 0 -5.1021608e-06 0 0)
(-0.96721751 -0.17940607 0 4.8109389e-06 0 0)
(-0.97677725 -0.18057989 0 -4.537166e-06 0 0)
(-0.96781215 -0.17947986 0 4.2826061e-06 0 0)
(-0.97620474 -0.18051013 0 -4.0419837e-06 0 0)
(-0.96834219 -0.17954557 0 3.8191147e-06 0 0)
(-0.97569527 -0.18044798 0 -3.6084983e-06 0 0)
(-0.96881546 -0.17960419 0 3.413665e-06 0 0)
(-0.97524089 -0.18039248 0 -3.2299467e-06 0 0)
(-0.96923899 -0.17965662 0 3.0601484e-06 0 0)
(-0.97483452 -0.18034278 0 -2.9005306e-06 0 0)
(-0.96961906 -0.17970364 0 2.7532093e-06 0 0)
(-0.97446986 -0.18029813 0 -2.6152497e-06 0 0)
(-0.96996135 -0.17974598 0 2.4882093e-06 0 0)
(-0.97414128 -0.18025785 0 -2.3698079e-06 0 0)
(-0.97027099 -0.17978427 0 2.2611747e-06 0 0)
(-0.9738437 -0.18022133 0 -2.1605528e-06 0 0)
(-0.97055259 -0.1798191 0 2.0687541e-06 0 0)
(-0.97357256 -0.18018801 0 -1.9844413e-06 0 0)
(-0.97081039 -0.17985099 0 1.9082004e-06 0 0)
(-0.97332369 -0.18015738 0 -1.8390357e-06 0 0)
(-0.97104826 -0.17988043 0 1.7774215e-06 0 0)
(-0.97309327 -0.18012898 0 -1.7225045e-06 0 0)
(-0.97126978 -0.17990787 0 1.675085e-06 0 0)