/*--------------------------------*- C++ -*----------------------------------*\
| =========                 |                                                 |
| \\      /  F ield         | OpenFOAM: The Open Source CFD Toolbox           |
|  \\    /   O peration     | Version:  2312                                  |
|   \\  /    A nd           | Website:  www.openfoam.com                      |
|    \\/     M anipulation  |                                                 |
\*---------------------------------------------------------------------------*/
FoamFile
{
    version     2.0;
    format      ascii;
    arch        "LSB;label=32;scalar=64";
    class       volVectorField;
    location    "9";
    object      U;
}
// * * * * * * * * * * * * * * * * * * * * * * * * * * * * * * * * * * * * * //

dimensions      [0 1 -1 0 0 0 0];

internalField   nonuniform List<vector> 
4000
(
(0.0023140395 0.00042290194 0)
(0.0030384094 -6.2384936e-06 0)
(0.0024289348 -3.6724512e-07 0)
(0.0025689521 2.2181975e-07 0)
(0.0024867354 -2.6065777e-07 0)
(0.0025432469 2.349598e-07 0)
(0.0024909266 -2.217899e-07 0)
(0.0025384057 2.0824471e-07 0)
(0.0024941908 -1.9547157e-07 0)
(0.0025355185 1.8387454e-07 0)
(0.0024967174 -1.7305606e-07 0)
(0.0025331209 1.6283697e-07 0)
(0.0024989179 -1.5331137e-07 0)
(0.0025310288 1.4432787e-07 0)
(0.0025008714 -1.3591264e-07 0)
(0.0025291813 1.2800379e-07 0)
(0.0025026064 -1.2058085e-07 0)
(0.0025275441 1.1361747e-07 0)
(0.0025041471 -1.0707901e-07 0)
(0.0025260907 1.0095265e-07 0)
(0.0025055162 -9.5201381e-08 0)
(0.0025247986 8.9818372e-08 0)
(0.0025067342 -8.4767991e-08 0)
(0.0025236482 8.0046591e-08 0)
(0.0025078196 -7.562106e-08 0)
(0.002522622 7.1489697e-08 0)
(0.0025087887 -6.7622254e-08 0)
(0.0025217046 6.401828e-08 0)
(0.0025096563 -6.0650472e-08 0)
(0.0025208821 5.7519175e-08 0)
(0.0025104353 -5.4600005e-08 0)
(0.002520142 5.1893785e-08 0)
(0.0025111378 -4.9378973e-08 0)
(0.0025194732 4.7056642e-08 0)
(0.0025117742 -4.4907996e-08 0)
(0.0025188655 4.2934187e-08 0)
(0.0025123544 -4.1119067e-08 0)
(0.0025183097 3.9463745e-08 0)
(0.0025128869 -3.7954625e-08 0)
(0.0025177974 3.6592696e-08 0)
(0.0025133801 -3.5366839e-08 0)
(0.0025173209 3.4277936e-08 0)
(0.0025138412 -3.3317234e-08 0)
(0.0025168728 3.2485617e-08 0)
(0.0025142771 -3.1778306e-08 0)
(0.0025164457 3.1188802e-08 0)
(0.0025146945 -3.0741302e-08 0)
(0.002516046 3.0401134e-08 0)
(0.0025151751 -2.9940692e-08 0)
(0.0025159517 3.2030895e-08 0)
(0.006195378 0.0011493124 0)
(0.0085504503 -1.0974302e-06 0)
(0.007124884 4.857545e-06 0)
(0.0074446058 3.1967971e-07 0)
(0.0072183555 -6.0450025e-07 0)
(0.0073831071 8.1556654e-07 0)
(0.0072294851 -7.5494637e-07 0)
(0.0073698011 7.2650728e-07 0)
(0.0072391436 -6.8637234e-07 0)
(0.0073614295 6.4824355e-07 0)
(0.007246619 -6.0983347e-07 0)
(0.0073543577 5.747151e-07 0)
(0.0072531378 -5.4074307e-07 0)
(0.0073481685 5.0931349e-07 0)
(0.0072589277 -4.7949756e-07 0)
(0.0073426998 4.5166228e-07 0)
(0.0072640705 -4.2544404e-07 0)
(0.0073378524 4.008886e-07 0)
(0.0072686381 -3.7782066e-07 0)
(0.0073335482 3.5620368e-07 0)
(0.0072726977 -3.3592156e-07 0)
(0.0073297211 3.1692461e-07 0)
(0.0072763101 -2.9911768e-07 0)
(0.0073263126 2.8245566e-07 0)
(0.00727953 -2.6685392e-07 0)
(0.0073232713 2.5227512e-07 0)
(0.0072824059 -2.3864248e-07 0)
(0.0073205513 2.2592597e-07 0)
(0.0072849815 -2.1405598e-07 0)
(0.0073181113 2.0300861e-07 0)
(0.0072872958 -1.9272127e-07 0)
(0.0073159145 1.8317494e-07 0)
(0.0072893838 -1.7431394e-07 0)
(0.0073139276 1.6612316e-07 0)
(0.0072912773 -1.5855367e-07 0)
(0.0073121205 1.5159346e-07 0)
(0.007293005 -1.4520015e-07 0)
(0.0073104657 1.3936422e-07 0)
(0.0072945932 -1.3404964e-07 0)
(0.0073089382 1.2924884e-07 0)
(0.0072960659 -1.249321e-07 0)
(0.0073075146 1.2109317e-07 0)
(0.0072974456 -1.1770833e-07 0)
(0.0073061734 1.1477731e-07 0)
(0.0072987528 -1.1226133e-07 0)
(0.0073048918 1.1020768e-07 0)
(0.0073000052 -1.0866736e-07 0)
(0.0073036685 1.064328e-07 0)
(0.0073013734 -1.1043606e-07 0)
(0.0073032028 1.0220362e-07 0)
(0.010105645 0.0018705395 0)
(0.013790237 -4.9553652e-06 0)
(0.011699486 1.2312534e-05 0)
(0.012195283 4.8706849e-07 0)
(0.011824131 -9.3274821e-07 0)
(0.012101223 1.4763558e-06 0)
(0.011843587 -1.3589769e-06 0)
(0.012079834 1.3154351e-06 0)
(0.011859963 -1.2471213e-06 0)
(0.012065881 1.1788663e-06 0)
(0.011872556 -1.1089834e-06 0)
(0.012053994 1.0455886e-06 0)
(0.01188354 -9.8359518e-07 0)
(0.012043574 9.265406e-07 0)
(0.011893297 -8.7225483e-07 0)
(0.012034364 8.2162498e-07 0)
(0.011901963 -7.7393839e-07 0)
(0.0120262 7.2924664e-07 0)
(0.01190966 -6.8730271e-07 0)
(0.012018949 6.4795289e-07 0)
(0.011916502 -6.1107625e-07 0)
(0.012012501 5.7649537e-07 0)
(0.01192259 -5.4411826e-07 0)
(0.012006759 5.1378871e-07 0)
(0.011928017 -4.8541978e-07 0)
(0.012001634 4.5888326e-07 0)
(0.011932866 -4.3409343e-07 0)
(0.01199705 4.1094731e-07 0)
(0.011937208 -3.8936146e-07 0)
(0.011992937 3.6925368e-07 0)
(0.011941111 -3.5054463e-07 0)
(0.011989233 3.3316878e-07 0)
(0.011944633 -3.1705242e-07 0)
(0.011985882 3.0214326e-07 0)
(0.011947829 -2.8837441e-07 0)
(0.011982833 2.7570404e-07 0)
(0.011950745 -2.6407283e-07 0)
(0.011980039 2.5344727e-07 0)
(0.011953428 -2.4377613e-07 0)
(0.011977459 2.3503236e-07 0)
(0.011955917 -2.2717347e-07 0)
(0.011975052 2.2017668e-07 0)
(0.01195825 -2.1400853e-07 0)
(0.011972783 2.0865953e-07 0)
(0.011960464 -2.0405215e-07 0)
(0.011970613 2.0032027e-07 0)
(0.011962586 -1.9743513e-07 0)
(0.011968526 1.9300788e-07 0)
(0.011964857 -2.0309125e-07 0)
(0.011967578 1.8462438e-07 0)
(0.013747988 0.0024679677 0)
(0.018812403 -2.325007e-05 0)
(0.016155908 2.2687975e-05 0)
(0.016820613 5.1431049e-07 0)
(0.016304013 -1.0730774e-06 0)
(0.016697831 2.0970754e-06 0)
(0.016333047 -1.9281336e-06 0)
(0.016668724 1.8752778e-06 0)
(0.016356475 -1.785953e-06 0)
(0.016649076 1.6894908e-06 0)
(0.016374373 -1.5893831e-06 0)
(0.016632209 1.4991987e-06 0)
(0.016389986 -1.410051e-06 0)
(0.016617406 1.3284103e-06 0)
(0.016403855 -1.2505313e-06 0)
(0.016604318 1.1779345e-06 0)
(0.016416172 -1.1095957e-06 0)
(0.016592714 1.0454732e-06 0)
(0.016427112 -9.8538267e-07 0)
(0.016582409 9.2891633e-07 0)
(0.016436837 -8.7608786e-07 0)
(0.016573245 8.2646523e-07 0)
(0.01644549 -7.8008112e-07 0)
(0.016565082 7.3656118e-07 0)
(0.016453205 -6.9591711e-07 0)
(0.016557798 6.5784183e-07 0)
(0.016460097 -6.2232349e-07 0)
(0.016551281 5.8911431e-07 0)
(0.01646627 -5.5818475e-07 0)
(0.016545435 5.2933572e-07 0)
(0.016471818 -5.0252657e-07 0)
(0.016540169 4.7759736e-07 0)
(0.016476826 -4.5450182e-07 0)
(0.016535404 4.3311131e-07 0)
(0.016481369 -4.1337825e-07 0)
(0.016531068 3.9519894e-07 0)
(0.016485517 -3.7852773e-07 0)
(0.016527095 3.632808e-07 0)
(0.016489332 -3.4941687e-07 0)
(0.016523425 3.3686781e-07 0)
(0.016492873 -3.2559899e-07 0)
(0.016520001 3.1555306e-07 0)
(0.016496194 -3.0670419e-07 0)
(0.016516771 2.9901951e-07 0)
(0.016499346 -2.9238483e-07 0)
(0.01651368 2.8705757e-07 0)
(0.016502369 -2.8283219e-07 0)
(0.016510695 2.7598408e-07 0)
(0.016505556 -2.9463914e-07 0)
(0.016509151 2.6366959e-07 0)
(0.01766602 0.0031423589 0)
(0.023614165 -2.9111831e-05 0)
(0.020485686 3.5346308e-05 0)
(0.021320187 3.0972153e-07 0)
(0.020657968 -1.0398856e-06 0)
(0.021172841 2.643936e-06 0)
(0.020697983 -2.4410397e-06 0)
(0.021136349 2.3817118e-06 0)
(0.020728775 -2.2810731e-06 0)
(0.021110903 2.1591034e-06 0)
(0.020752154 -2.0313008e-06 0)
(0.021088907 1.9169361e-06 0)
(0.02077255 -1.8025671e-06 0)
(0.02106958 1.6984319e-06 0)
(0.020790665 -1.5987642e-06 0)
(0.021052487 1.5059681e-06 0)
(0.020806754 -1.4186079e-06 0)
(0.021037331 1.3365897e-06 0)
(0.020821043 -1.2597997e-06 0)
(0.021023872 1.1875626e-06 0)
(0.020833743 -1.1200573e-06 0)
(0.021011902 1.056575e-06 0)
(0.020845046 -9.9730359e-07 0)
(0.021001242 9.4163069e-07 0)
(0.020855121 -8.896921e-07 0)
(0.020991728 8.4098655e-07 0)
(0.020864122 -7.9559606e-07 0)
(0.020983218 7.5311687e-07 0)
(0.020872184 -7.1358874e-07 0)
(0.020975582 6.7668782e-07 0)
(0.02087943 -6.4242388e-07 0)
(0.020968705 6.1053723e-07 0)
(0.02088597 -5.8101791e-07 0)
(0.020962483 5.536574e-07 0)
(0.020891903 -5.2843415e-07 0)
(0.02095682 5.0518036e-07 0)
(0.020897319 -4.8386907e-07 0)
(0.020951632 4.6436488e-07 0)
(0.020902302 -4.466401e-07 0)
(0.020946839 4.3058492e-07 0)
(0.020906926 -4.1617524e-07 0)
(0.020942368 4.0331864e-07 0)
(0.020911263 -3.9199942e-07 0)
(0.02093815 3.8216075e-07 0)
(0.020915379 -3.7364509e-07 0)
(0.020934114 3.6687579e-07 0)
(0.020919328 -3.6134769e-07 0)
(0.020930203 3.5205448e-07 0)
(0.020923442 -3.81049e-07 0)
(0.020927968 3.3610315e-07 0)
(0.020957116 0.0035495421 0)
(0.028163745 -6.1812626e-05 0)
(0.024698262 4.9359346e-05 0)
(0.025692792 2.9876315e-08 0)
(0.024886372 -8.4789019e-07 0)
(0.025525901 3.1148072e-06 0)
(0.024938811 -2.9030894e-06 0)
(0.025482358 2.8365412e-06 0)
(0.024977207 -2.7350999e-06 0)
(0.025451046 2.589703e-06 0)
(0.025006202 -2.4367167e-06 0)
(0.025423807 2.3005719e-06 0)
(0.025031498 -2.162844e-06 0)
(0.025399847 2.0381798e-06 0)
(0.025053964 -1.9184516e-06 0)
(0.025378652 1.8071255e-06 0)
(0.025073915 -1.7023021e-06 0)
(0.025359858 1.6038408e-06 0)
(0.025091634 -1.5117328e-06 0)
(0.025343168 1.4249993e-06 0)
(0.025107383 -1.3440341e-06 0)
(0.025328325 1.2678119e-06 0)
(0.025121398 -1.1967215e-06 0)
(0.025315106 1.1298786e-06 0)
(0.02513389 -1.067581e-06 0)
(0.02530331 1.0091062e-06 0)
(0.02514505 -9.5466045e-07 0)
(0.025292758 9.0366291e-07 0)
(0.025155045 -8.5624697e-07 0)
(0.025283291 8.1194762e-07 0)
(0.025164029 -7.7084441e-07 0)
(0.025274766 7.3256523e-07 0)
(0.025172136 -6.9715185e-07 0)
(0.025267052 6.6430615e-07 0)
(0.025179491 -6.3404478e-07 0)
(0.025260033 6.061284e-07 0)
(0.025186205 -5.8055838e-07 0)
(0.025253602 5.57142e-07 0)
(0.02519238 -5.3587284e-07 0)
(0.025247662 5.1659483e-07 0)
(0.025198112 -4.9930052e-07 0)
(0.025242121 4.8385851e-07 0)
(0.025203486 -4.7026858e-07 0)
(0.025236894 4.5844585e-07 0)
(0.025208586 -4.4818757e-07 0)
(0.025231893 4.4011521e-07 0)
(0.02521348 -4.3330609e-07 0)
(0.02522704 4.2159626e-07 0)
(0.025218529 -4.621957e-07 0)
(0.025224032 4.0189449e-07 0)
(0.024913163 0.0042020083 0)
(0.032524067 -6.6642949e-05 0)
(0.028789308 6.4726344e-05 0)
(0.029936035 -3.5641274e-07 0)
(0.028989175 -5.5461496e-07 0)
(0.029756615 3.5029161e-06 0)
(0.029055972 -3.3214036e-06 0)
(0.029706378 3.2427884e-06 0)
(0.029102133 -3.1518451e-06 0)
(0.029669166 2.9844146e-06 0)
(0.029136834 -2.8086646e-06 0)
(0.029636611 2.6528803e-06 0)
(0.029167112 -2.4935187e-06 0)
(0.029607944 2.350119e-06 0)
(0.029194 -2.211923e-06 0)
(0.029582581 2.0835966e-06 0)
(0.029217876 -1.9627443e-06 0)
(0.029560089 1.8491721e-06 0)
(0.02923908 -1.7430172e-06 0)
(0.029540115 1.6429567e-06 0)
(0.029257926 -1.5496508e-06 0)
(0.029522354 1.4617168e-06 0)
(0.029274696 -1.3797898e-06 0)
(0.029506536 1.3026797e-06 0)
(0.029289644 -1.2308835e-06 0)
(0.02949242 1.16343e-06 0)
(0.029302996 -1.1006802e-06 0)
(0.029479795 1.0418547e-06 0)
(0.029314956 -9.8720453e-07 0)
(0.029468468 9.3610697e-07 0)
(0.029325704 -8.8873053e-07 0)
(0.029458268 8.445778e-07 0)
(0.029335403 -8.0375758e-07 0)
(0.02944904 7.6587209e-07 0)
(0.029344201 -7.309885e-07 0)
(0.029440644 6.9878801e-07 0)
(0.029352232 -6.6931021e-07 0)
(0.029432952 6.4229878e-07 0)
(0.029359618 -6.1777649e-07 0)
(0.029425847 5.9553605e-07 0)
(0.029366472 -5.7559294e-07 0)
(0.029419221 5.5777251e-07 0)
(0.029372898 -5.4209555e-07 0)
(0.029412972 5.2844421e-07 0)
(0.029378996 -5.1657131e-07 0)
(0.029406994 5.0732069e-07 0)
(0.029384847 -4.9924164e-07 0)
(0.029401186 4.8519326e-07 0)
(0.029390834 -5.3819981e-07 0)
(0.029397339 4.6138991e-07 0)
(0.027925835 0.0044536251 0)
(0.03660354 -0.00011501623 0)
(0.032768183 7.9259361e-05 0)
(0.034048276 -5.2557206e-07 0)
(0.032966407 -1.6123805e-07 0)
(0.033864683 3.8028667e-06 0)
(0.033049883 -3.6984408e-06 0)
(0.033808096 3.6007812e-06 0)
(0.033103876 -3.5320511e-06 0)
(0.033764969 3.3436443e-06 0)
(0.033144331 -3.1475809e-06 0)
(0.033727054 2.9742042e-06 0)
(0.033179639 -2.7949351e-06 0)
(0.033693638 2.6345605e-06 0)
(0.033210991 -2.4794755e-06 0)
(0.033664067 2.335661e-06 0)
(0.033238829 -2.200197e-06 0)
(0.033637843 2.0728337e-06 0)
(0.03326355 -1.9538868e-06 0)
(0.033614556 1.8416584e-06 0)
(0.033285521 -1.7371168e-06 0)
(0.033593848 1.6384898e-06 0)
(0.033305072 -1.5466965e-06 0)
(0.033575406 1.4602134e-06 0)
(0.033322498 -1.3797681e-06 0)
(0.03355895 1.3041193e-06 0)
(0.033338064 -1.2338076e-06 0)
(0.033544232 1.1678379e-06 0)
(0.033352005 -1.1065993e-06 0)
(0.033531029 1.049298e-06 0)
(0.033364532 -9.962078e-07 0)
(0.033519139 9.4669554e-07 0)
(0.033375837 -9.0095017e-07 0)
(0.033508383 8.5846614e-07 0)
(0.033386092 -8.1937167e-07 0)
(0.033498598 7.8326214e-07 0)
(0.033395451 -7.5022383e-07 0)
(0.033489634 7.1993185e-07 0)
(0.033404058 -6.9244491e-07 0)
(0.033481356 6.6750052e-07 0)
(0.033412043 -6.4514252e-07 0)
(0.033473636 6.2514957e-07 0)
(0.03341953 -6.0756832e-07 0)
(0.033466356 5.9224344e-07 0)
(0.033426633 -5.7888576e-07 0)
(0.033459394 5.6857919e-07 0)
(0.033433448 -5.5924711e-07 0)
(0.033452626 5.4298312e-07 0)
(0.033440372 -6.0882679e-07 0)
(0.033447886 5.1462796e-07 0)
(0.031821596 0.0050237012 0)
(0.040532509 -0.00011791674 0)
(0.036630807 9.480496e-05 0)
(0.038028268 -9.8724951e-07 0)
(0.036817802 1.5702612e-07 0)
(0.03784982 3.9782508e-06 0)
(0.03692091 -4.0381443e-06 0)
(0.037787248 3.9099836e-06 0)
(0.036982725 -3.8753462e-06 0)
(0.037738198 3.6670649e-06 0)
(0.037028941 -3.4530584e-06 0)
(0.037694906 3.2641616e-06 0)
(0.037069297 -3.0667276e-06 0)
(0.037656725 2.8911596e-06 0)
(0.037105129 -2.7207832e-06 0)
(0.037622931 2.5630149e-06 0)
(0.037136943 -2.4143713e-06 0)
(0.037592961 2.2745574e-06 0)
(0.037165194 -2.144086e-06 0)
(0.037566348 2.020867e-06 0)
(0.037190301 -1.9062058e-06 0)
(0.037542683 1.7979204e-06 0)
(0.037212642 -1.6972409e-06 0)
(0.037521609 1.6022928e-06 0)
(0.037232554 -1.5140572e-06 0)
(0.037502805 1.4310081e-06 0)
(0.03725034 -1.3538843e-06 0)
(0.037485987 1.2814644e-06 0)
(0.037266269 -1.2142903e-06 0)
(0.037470901 1.1513885e-06 0)
(0.037280582 -1.0931502e-06 0)
(0.037457316 1.0388e-06 0)
(0.037293498 -9.8861663e-07 0)
(0.037445028 9.4198182e-07 0)
(0.037305213 -8.9909263e-07 0)
(0.037433849 8.5945476e-07 0)
(0.037315904 -8.2320747e-07 0)
(0.03742361 7.8995426e-07 0)
(0.037325735 -7.5979489e-07 0)
(0.037414154 7.3240927e-07 0)
(0.037334856 -7.0787361e-07 0)
(0.037405337 6.8591785e-07 0)
(0.037343406 -6.6661811e-07 0)
(0.037397024 6.4977815e-07 0)
(0.037351516 -6.350703e-07 0)
(0.037389077 6.2383021e-07 0)
(0.037359297 -6.1327292e-07 0)
(0.037381348 5.9495206e-07 0)
(0.037367155 -6.737457e-07 0)
(0.037375671 5.6158814e-07 0)
(0.03481016 0.0052117121 0)
(0.044167447 -0.00017872087 0)
(0.040377267 0.00010854392 0)
(0.041879942 -1.7125208e-06 0)
(0.040544905 3.3490205e-07 0)
(0.041711805 3.9979715e-06 0)
(0.040669334 -4.3484705e-06 0)
(0.041643568 4.1686114e-06 0)
(0.040738928 -4.1821436e-06 0)
(0.041588619 3.9543972e-06 0)
(0.040790884 -3.7249806e-06 0)
(0.041539961 3.5225594e-06 0)
(0.04083628 -3.3087407e-06 0)
(0.041497021 3.1197575e-06 0)
(0.040876585 -2.9357008e-06 0)
(0.041459011 2.7655218e-06 0)
(0.040912369 -2.6051374e-06 0)
(0.041425302 2.4542236e-06 0)
(0.040944144 -2.3134999e-06 0)
(0.041395368 2.1804771e-06 0)
(0.040972382 -2.0568165e-06 0)
(0.041368751 1.9399156e-06 0)
(0.040997508 -1.8313335e-06 0)
(0.041345048 1.7288357e-06 0)
(0.041019902 -1.6336714e-06 0)
(0.0413239 1.544023e-06 0)
(0.041039904 -1.4608402e-06 0)
(0.041304986 1.3826691e-06 0)
(0.041057818 -1.3102149e-06 0)
(0.04128802 1.2423202e-06 0)
(0.041073914 -1.1795018e-06 0)
(0.041272744 1.1208389e-06 0)
(0.041088438 -1.066707e-06 0)
(0.041258926 1.0163723e-06 0)
(0.04110161 -9.7010651e-07 0)
(0.041246356 9.2732373e-07 0)
(0.041113631 -8.8822072e-07 0)
(0.041234843 8.52328e-07 0)
(0.041124684 -8.1979e-07 0)
(0.041224212 7.9022794e-07 0)
(0.041134937 -7.6375332e-07 0)
(0.041214301 7.4004643e-07 0)
(0.041144547 -7.1921548e-07 0)
(0.041204958 7.0102078e-07 0)
(0.041153663 -6.8510052e-07 0)
(0.041196028 6.730478e-07 0)
(0.041162407 -6.6130436e-07 0)
(0.041187342 6.4110975e-07 0)
(0.041171191 -7.3269134e-07 0)
(0.041180694 6.0231938e-07 0)
(0.03858706 0.0056357748 0)
(0.047706893 -0.00018118301 0)
(0.043991864 0.00012295414 0)
(0.045608488 -1.5917737e-06 0)
(0.044151403 6.0193168e-07 0)
(0.045450871 3.9253994e-06 0)
(0.044295551 -4.6142453e-06 0)
(0.045376849 4.3812267e-06 0)
(0.044372716 -4.4516364e-06 0)
(0.045316021 4.206091e-06 0)
(0.044430359 -3.9634014e-06 0)
(0.045262031 3.7495228e-06 0)
(0.044480765 -3.521069e-06 0)
(0.045214363 3.3204491e-06 0)
(0.044525516 -3.1243151e-06 0)
(0.045172162 2.9432667e-06 0)
(0.044565244 -2.772573e-06 0)
(0.045134736 2.6119086e-06 0)
(0.04460052 -2.4621982e-06 0)
(0.045101502 2.3205572e-06 0)
(0.04463187 -2.1890116e-06 0)
(0.045071951 2.0645366e-06 0)
(0.044659764 -1.9490308e-06 0)
(0.045045636 1.8398967e-06 0)
(0.044684624 -1.7386613e-06 0)
(0.045022159 1.6432134e-06 0)
(0.044706829 -1.5547207e-06 0)
(0.045001162 1.4714962e-06 0)
(0.044726714 -1.3944142e-06 0)
(0.044982328 1.3221329e-06 0)
(0.044744581 -1.2552999e-06 0)
(0.04496537 1.1928485e-06 0)
(0.044760702 -1.1352551e-06 0)
(0.044950032 1.0816705e-06 0)
(0.044775323 -1.0324445e-06 0)
(0.04493608 9.8689935e-07 0)
(0.044788665 -9.4529248e-07 0)
(0.044923302 9.0708131e-07 0)
(0.044800932 -8.724574e-07 0)
(0.044911504 8.4098329e-07 0)
(0.04481231 -8.1280767e-07 0)
(0.044900506 7.875612e-07 0)
(0.044822974 -7.6538596e-07 0)
(0.044890139 7.4599709e-07 0)
(0.044833088 -7.2900371e-07 0)
(0.044880233 7.1625641e-07 0)
(0.044842789 -7.0337717e-07 0)
(0.0448706 6.8150769e-07 0)
(0.044852489 -7.8547748e-07 0)
(0.044862956 6.3694124e-07 0)
(0.041680255 0.0058106922 0)
(0.050961553 -0.00024861412 0)
(0.047477178 0.00013275323 0)
(0.049212645 -1.4826941e-06 0)
(0.047638949 8.0342074e-07 0)
(0.049066864 3.7361726e-06 0)
(0.047799804 -4.8442765e-06 0)
(0.048986885 4.5469273e-06 0)
(0.047884294 -4.684596e-06 0)
(0.048920216 4.4224082e-06 0)
(0.047947546 -4.1686601e-06 0)
(0.048860947 3.9453092e-06 0)
(0.048002909 -3.7039788e-06 0)
(0.0488086 3.493473e-06 0)
(0.04805206 -3.2868564e-06 0)
(0.048762252 3.0964656e-06 0)
(0.048095692 -2.9168814e-06 0)
(0.048721148 2.7478059e-06 0)
(0.048134433 -2.5903618e-06 0)
(0.048684648 2.44128e-06 0)
(0.04816886 -2.3029521e-06 0)
(0.048652195 2.1719375e-06 0)
(0.048199493 -2.0504764e-06 0)
(0.048623295 1.9356133e-06 0)
(0.048226794 -1.8291555e-06 0)
(0.048597512 1.7287017e-06 0)
(0.048251177 -1.635641e-06 0)
(0.048574454 1.5480553e-06 0)
(0.048273013 -1.4669915e-06 0)
(0.048553772 1.3909253e-06 0)
(0.048292633 -1.3206376e-06 0)
(0.048535151 1.2549177e-06 0)
(0.048310335 -1.1943452e-06 0)
(0.048518309 1.1379572e-06 0)
(0.048326389 -1.0861832e-06 0)
(0.048502989 1.0382554e-06 0)
(0.048341038 -9.9449316e-07 0)
(0.04848896 9.5428214e-07 0)
(0.048354506 -9.1786236e-07 0)
(0.048476007 8.8473863e-07 0)
(0.048366997 -8.5509793e-07 0)
(0.048463933 8.2852209e-07 0)
(0.048378703 -8.0518809e-07 0)
(0.048452553 7.8476492e-07 0)
(0.048389804 -7.6683832e-07 0)
(0.048441682 7.5351105e-07 0)
(0.048400453 -7.3955779e-07 0)
(0.048431113 7.1622204e-07 0)
(0.048411054 -8.3197715e-07 0)
(0.048422457 6.656201e-07 0)
(0.045274772 0.0060808312 0)
(0.054165512 -0.00024772929 0)
(0.050838015 0.00014279405 0)
(0.052690468 -1.9424414e-06 0)
(0.051007063 8.041529e-07 0)
(0.052559618 3.4251109e-06 0)
(0.051182295 -5.0413476e-06 0)
(0.05247351 4.6667662e-06 0)
(0.051273855 -4.8812893e-06 0)
(0.052401037 4.6039788e-06 0)
(0.05134261 -4.3411168e-06 0)
(0.05233656 4.1103376e-06 0)
(0.051402855 -3.8578279e-06 0)
(0.052279599 3.6391822e-06 0)
(0.051456343 -3.4236497e-06 0)
(0.052229164 3.22543e-06 0)
(0.051503822 -3.0383528e-06 0)
(0.052184435 2.8621922e-06 0)
(0.051545978 -2.6982491e-06 0)
(0.052144716 2.5428913e-06 0)
(0.051583439 -2.3988683e-06 0)
(0.052109401 2.2623371e-06 0)
(0.05161677 -2.1358755e-06 0)
(0.052077954 2.0161805e-06 0)
(0.051646476 -1.9053371e-06 0)
(0.052049899 1.8006622e-06 0)
(0.051673007 -1.7037646e-06 0)
(0.05202481 1.6125023e-06 0)
(0.051696765 -1.5280936e-06 0)
(0.052002305 1.448837e-06 0)
(0.051718113 -1.3756468e-06 0)
(0.051982045 1.3071724e-06 0)
(0.051737373 -1.2440967e-06 0)
(0.05196372 1.1853464e-06 0)
(0.051754839 -1.1314312e-06 0)
(0.051947053 1.0814958e-06 0)
(0.051770777 -1.0359221e-06 0)
(0.051931789 9.9402615e-07 0)
(0.051785429 -9.560967e-07 0)
(0.051917698 9.2158281e-07 0)
(0.051799017 -8.9070994e-07 0)
(0.051904564 8.6301272e-07 0)
(0.05181175 -8.387033e-07 0)
(0.051892186 8.174044e-07 0)
(0.051823824 -7.9868429e-07 0)
(0.051880365 7.8488789e-07 0)
(0.051835406 -7.6993371e-07 0)
(0.051868875 7.4534532e-07 0)
(0.051846893 -8.721114e-07 0)
(0.051859197 6.8855507e-07 0)
(0.048426006 0.0062347972 0)
(0.057096409 -0.00031720088 0)
(0.054074023 0.0001484534 0)
(0.056044138 -2.1757177e-06 0)
(0.054256147 7.84365e-07 0)
(0.055929169 3.0494556e-06 0)
(0.054443218 -5.1956648e-06 0)
(0.055836559 4.7441328e-06 0)
(0.054541561 -5.0416594e-06 0)
(0.05575833 4.7515642e-06 0)
(0.054615694 -4.4812749e-06 0)
(0.055688732 4.2451107e-06 0)
(0.054680732 -3.983088e-06 0)
(0.055627241 3.7580185e-06 0)
(0.054738478 -3.5351132e-06 0)
(0.055572792 3.3305541e-06 0)
(0.054789734 -3.1373577e-06 0)
(0.055524503 2.9554184e-06 0)
(0.054835243 -2.7861893e-06 0)
(0.055481623 2.6257035e-06 0)
(0.054875683 -2.4770529e-06 0)
(0.055443498 2.3360132e-06 0)
(0.054911664 -2.205489e-06 0)
(0.05540955 2.0818456e-06 0)
(0.054943731 -1.9674385e-06 0)
(0.055379264 1.8593155e-06 0)
(0.05497237 -1.7592994e-06 0)
(0.05535218 1.6650346e-06 0)
(0.054998017 -1.5779066e-06 0)
(0.055327887 1.4960453e-06 0)
(0.05502106 -1.420495e-06 0)
(0.055306016 1.3497722e-06 0)
(0.05504185 -1.2846608e-06 0)
(0.055286235 1.2239826e-06 0)
(0.055060704 -1.1683259e-06 0)
(0.055268244 1.1167523e-06 0)
(0.055077907 -1.0697051e-06 0)
(0.055251769 1.0264342e-06 0)
(0.055093721 -9.8727645e-07 0)
(0.05523656 9.5162788e-07 0)
(0.055108387 -9.197519e-07 0)
(0.055222384 8.9113829e-07 0)
(0.055122128 -8.6603391e-07 0)
(0.055209026 8.440159e-07 0)
(0.055135157 -8.2464107e-07 0)
(0.055196272 8.1048233e-07 0)
(0.055147655 -7.9461107e-07 0)
(0.05518388 7.6898493e-07 0)
(0.055160011 -9.0584475e-07 0)
(0.055173178 7.0597041e-07 0)
(0.051849705 0.0063723157 0)
(0.060014417 -0.00031555891 0)
(0.057188341 0.00015480895 0)
(0.059274717 -2.4426257e-06 0)
(0.057385467 6.4590577e-07 0)
(0.059175352 2.6028945e-06 0)
(0.057582694 -5.3091234e-06 0)
(0.059075867 4.7796576e-06 0)
(0.057687551 -5.1663515e-06 0)
(0.058991956 4.8659311e-06 0)
(0.057766927 -4.5897394e-06 0)
(0.058917343 4.3502456e-06 0)
(0.057836653 -4.0803152e-06 0)
(0.058851417 3.8505189e-06 0)
(0.057898564 -3.621746e-06 0)
(0.058793041 3.4123129e-06 0)
(0.057953516 -3.2143404e-06 0)
(0.058741268 3.0279059e-06 0)
(0.058002305 -2.8545773e-06 0)
(0.058695296 2.6900908e-06 0)
(0.05804566 -2.5378573e-06 0)
(0.058654422 2.3932986e-06 0)
(0.058084233 -2.2596295e-06 0)
(0.058618027 2.1329052e-06 0)
(0.05811861 -2.0157387e-06 0)
(0.058585557 1.904926e-06 0)
(0.058149313 -1.8024946e-06 0)
(0.058556521 1.7058886e-06 0)
(0.058176806 -1.6166538e-06 0)
(0.058530478 1.5327622e-06 0)
(0.058201509 -1.455383e-06 0)
(0.058507031 1.382908e-06 0)
(0.058223797 -1.3162189e-06 0)
(0.058485826 1.2540387e-06 0)
(0.058244007 -1.1970319e-06 0)
(0.05846654 1.1441823e-06 0)
(0.058262448 -1.0959926e-06 0)
(0.058448879 1.0516508e-06 0)
(0.0582794 -1.0115403e-06 0)
(0.058432575 9.750077e-07 0)
(0.05829512 -9.4235302e-07 0)
(0.058417381 9.1302425e-07 0)
(0.058309849 -8.8730181e-07 0)
(0.058403064 8.6471881e-07 0)
(0.058323813 -8.4482646e-07 0)
(0.058389397 8.3040783e-07 0)
(0.058337208 -8.1371329e-07 0)
(0.058376124 7.8726254e-07 0)
(0.05835041 -9.3318179e-07 0)
(0.058364402 7.1810939e-07 0)
(0.055055757 0.0064969793 0)
(0.062683953 -0.00038257778 0)
(0.06018113 0.00015557296 0)
(0.062384862 -2.8736153e-06 0)
(0.060394757 4.3202506e-07 0)
(0.06229812 2.1017766e-06 0)
(0.060600882 -5.3772674e-06 0)
(0.062191305 4.7756959e-06 0)
(0.060711959 -5.2556897e-06 0)
(0.062101795 4.9480154e-06 0)
(0.060796424 -4.6672151e-06 0)
(0.062022285 4.4264383e-06 0)
(0.060870719 -4.1501582e-06 0)
(0.061952035 3.9172965e-06 0)
(0.060936692 -3.6841247e-06 0)
(0.061889828 3.4712512e-06 0)
(0.060995247 -3.2698127e-06 0)
(0.061834659 3.0801387e-06 0)
(0.061047235 -2.9038675e-06 0)
(0.061785671 2.7364832e-06 0)
(0.06109343 -2.5816854e-06 0)
(0.061742116 2.4345757e-06 0)
(0.061134532 -2.2986565e-06 0)
(0.061703334 2.1696995e-06 0)
(0.061171161 -2.0505581e-06 0)
(0.061668736 1.9377974e-06 0)
(0.061203875 -1.8336364e-06 0)
(0.061637796 1.7353358e-06 0)
(0.06123317 -1.6445917e-06 0)
(0.061610046 1.5592313e-06 0)
(0.061259491 -1.4805413e-06 0)
(0.061585063 1.4067994e-06 0)
(0.061283239 -1.338979e-06 0)
(0.061562468 1.2757132e-06 0)
(0.061304773 -1.2177383e-06 0)
(0.061541918 1.1639667e-06 0)
(0.061324421 -1.1149574e-06 0)
(0.061523101 1.0698418e-06 0)
(0.061342482 -1.0290476e-06 0)
(0.061505731 9.9187585e-07 0)
(0.061359231 -9.5866154e-07 0)
(0.061489543 9.2881441e-07 0)
(0.061374923 -9.0264672e-07 0)
(0.06147429 8.7964979e-07 0)
(0.061389798 -8.5937487e-07 0)
(0.061459733 8.4479435e-07 0)
(0.061404068 -8.2737927e-07 0)
(0.061445602 8.0031303e-07 0)
(0.061418095 -9.5416353e-07 0)
(0.061432869 7.2522875e-07 0)
(0.058325333 0.0065174978 0)
(0.065369414 -0.00037750251 0)
(0.063056469 0.00015705403 0)
(0.065377778 -3.352661e-06 0)
(0.06328337 1.4138285e-07 0)
(0.065297377 1.5448254e-06 0)
(0.063497899 -5.3983703e-06 0)
(0.065182748 4.7336031e-06 0)
(0.063614895 -5.310386e-06 0)
(0.065087735 4.9987686e-06 0)
(0.063704286 -4.7144977e-06 0)
(0.065003462 4.474468e-06 0)
(0.06378302 -4.1933376e-06 0)
(0.064929008 3.9590374e-06 0)
(0.063852939 -3.7228918e-06 0)
(0.064863079 3.5079772e-06 0)
(0.063914996 -3.304345e-06 0)
(0.064804608 3.1126564e-06 0)
(0.063970091 -2.9345669e-06 0)
(0.064752689 2.7653599e-06 0)
(0.064019048 -2.6089877e-06 0)
(0.064706529 2.4602705e-06 0)
(0.064062606 -2.3229709e-06 0)
(0.064665428 2.1926077e-06 0)
(0.064101425 -2.0722541e-06 0)
(0.06462876 1.9582679e-06 0)
(0.064136094 -1.8530441e-06 0)
(0.064595971 1.7536787e-06 0)
(0.06416714 -1.6620063e-06 0)
(0.064566562 1.575724e-06 0)
(0.064195034 -1.496227e-06 0)
(0.064540085 1.4216908e-06 0)
(0.0642202 -1.3531735e-06 0)
(0.06451614 1.2892277e-06 0)
(0.064243021 -1.2306559e-06 0)
(0.064494362 1.176307e-06 0)
(0.064263843 -1.1267922e-06 0)
(0.064474421 1.0811922e-06 0)
(0.064282982 -1.0399758e-06 0)
(0.064456013 1.0024035e-06 0)
(0.064300731 -9.688427e-07 0)
(0.064438859 9.3866898e-07 0)
(0.064317358 -9.1222422e-07 0)
(0.064422697 8.889609e-07 0)
(0.06433312 -8.6843558e-07 0)
(0.064407274 8.5378657e-07 0)
(0.06434824 -8.3576149e-07 0)
(0.064392311 8.082831e-07 0)
(0.064363068 -9.6886385e-07 0)
(0.064378581 7.275938e-07 0)
(0.061560734 0.0066058838 0)
(0.067829684 -0.00043884514 0)
(0.06580649 0.00015341727 0)
(0.068256257 -4.1559223e-06 0)
(0.066051582 -1.9379001e-07 0)
(0.068173152 9.2213929e-07 0)
(0.066273887 -5.3742185e-06 0)
(0.068050094 4.6537693e-06 0)
(0.066396461 -5.3316044e-06 0)
(0.067949681 5.0190741e-06 0)
(0.066490601 -4.732519e-06 0)
(0.06786079 4.4951597e-06 0)
(0.066573634 -4.2106505e-06 0)
(0.067782262 3.9764868e-06 0)
(0.066647376 -3.7387501e-06 0)
(0.067712728 3.5231537e-06 0)
(0.066712825 -3.3185605e-06 0)
(0.067651059 3.1260476e-06 0)
(0.06677093 -2.9472283e-06 0)
(0.067596301 2.7772436e-06 0)
(0.066822562 -2.6202557e-06 0)
(0.067547617 2.4708474e-06 0)
(0.066868499 -2.3330102e-06 0)
(0.067504269 2.2020436e-06 0)
(0.066909438 -2.0812165e-06 0)
(0.067465597 1.9667066e-06 0)
(0.066946001 -1.861066e-06 0)
(0.067431016 1.7612475e-06 0)
(0.066978742 -1.6692096e-06 0)
(0.067399999 1.5825365e-06 0)
(0.06700816 -1.5027208e-06 0)
(0.067372076 1.427849e-06 0)
(0.067034701 -1.3590557e-06 0)
(0.067346822 1.2948234e-06 0)
(0.067058768 -1.2360148e-06 0)
(0.067323855 1.1814233e-06 0)
(0.067080727 -1.1317074e-06 0)
(0.067302824 1.0859039e-06 0)
(0.067100912 -1.0445187e-06 0)
(0.067283411 1.0067775e-06 0)
(0.067119629 -9.7307677e-07 0)
(0.06726532 9.4276269e-07 0)
(0.067137164 -9.1620396e-07 0)
(0.067248277 8.9281788e-07 0)
(0.067153783 -8.7217103e-07 0)
(0.067232016 8.5754225e-07 0)
(0.067169728 -8.3902439e-07 0)
(0.067216248 8.1133006e-07 0)
(0.067185331 -9.7738621e-07 0)
(0.067201539 7.2547439e-07 0)
(0.064652028 0.0065222208 0)
(0.070323919 -0.00042971422 0)
(0.068441575 0.00015061003 0)
(0.071016749 -4.8447181e-06 0)
(0.068699625 -4.8717179e-07 0)
(0.070925218 2.5754881e-07 0)
(0.068928944 -5.294747e-06 0)
(0.070793226 4.5405419e-06 0)
(0.069056726 -5.3194201e-06 0)
(0.070687539 5.0102316e-06 0)
(0.069155444 -4.7221753e-06 0)
(0.070594191 4.489427e-06 0)
(0.069242629 -4.2029477e-06 0)
(0.070511733 3.9704444e-06 0)
(0.069320063 -3.7324555e-06 0)
(0.070438717 3.5174914e-06 0)
(0.069388786 -3.3131286e-06 0)
(0.070373961 3.1209435e-06 0)
(0.069449798 -2.942446e-06 0)
(0.070316462 2.7726949e-06 0)
(0.069504011 -2.6160171e-06 0)
(0.070265341 2.4668052e-06 0)
(0.069552246 -2.3292438e-06 0)
(0.070219824 2.1984511e-06 0)
(0.069595232 -2.0778639e-06 0)
(0.070179217 1.9635095e-06 0)
(0.069633623 -1.8580762e-06 0)
(0.070142905 1.7583964e-06 0)
(0.069668002 -1.6665368e-06 0)
(0.070110336 1.5799867e-06 0)
(0.069698891 -1.500324e-06 0)
(0.070081016 1.4255605e-06 0)
(0.069726759 -1.3568979e-06 0)
(0.070054498 1.29276e-06 0)
(0.06975203 -1.2340621e-06 0)
(0.070030382 1.1795518e-06 0)
(0.069775088 -1.1299288e-06 0)
(0.070008299 1.0841934e-06 0)
(0.069796282 -1.0428845e-06 0)
(0.069987915 1.0051984e-06 0)
(0.069815935 -9.7155739e-07 0)
(0.06996892 9.4128319e-07 0)
(0.069834345 -9.1476817e-07 0)
(0.069951026 8.9139863e-07 0)
(0.069851794 -8.707554e-07 0)
(0.069933956 8.5623089e-07 0)
(0.069868536 -8.3734281e-07 0)
(0.06991741 8.0962075e-07 0)
(0.069884885 -9.7986067e-07 0)
(0.069901747 7.1914146e-07 0)
(0.067870017 0.0065688432 0)
(0.072612636 -0.00048231895 0)
(0.070961629 0.00014256233 0)
(0.07365208 -5.5803275e-06 0)
(0.071228244 -6.6940862e-07 0)
(0.073553161 -4.3362052e-07 0)
(0.071463122 -5.1533038e-06 0)
(0.073412033 4.3974785e-06 0)
(0.071595754 -5.2741489e-06 0)