/*--------------------------------*- C++ -*----------------------------------*\
| =========                 |                                                 |
| \\      /  F ield         | OpenFOAM: The Open Source CFD Toolbox           |
|  \\    /   O peration     | Version:  2312                                  |
|   \\  /    A nd           | Website:  www.openfoam.com                      |
|    \\/     M anipulation  |                                                 |
\*---------------------------------------------------------------------------*/
FoamFile
{
    version     2.0;
    format      ascii;
    arch        "LSB;label=32;scalar=64";
    class       volVectorField;
    location    "9";
    object      U_0;
}
// * * * * * * * * * * * * * * * * * * * * * * * * * * * * * * * * * * * * * //

dimensions      [0 1 -1 0 0 0 0];

internalField   nonuniform List<vector> 
4000
(
(0.0023318201 0.00042483371 0)
(0.0030396722 -6.8173217e-06 0)
(0.0024291262 -3.4615859e-07 0)
(0.0025689478 2.2531802e-07 0)
(0.0024867402 -2.6039591e-07 0)
(0.0025432446 2.3495187e-07 0)
(0.0024909288 -2.21783e-07 0)
(0.0025384042 2.0823668e-07 0)
(0.0024941919 -1.954675e-07 0)
(0.0025355178 1.8387337e-07 0)
(0.0024967178 -1.7305698e-07 0)
(0.0025331207 1.6283951e-07 0)
(0.0024989178 -1.5331499e-07 0)
(0.0025310289 1.4433219e-07 0)
(0.0025008712 -1.3591728e-07 0)
(0.0025291816 1.2800847e-07 0)
(0.002502606 -1.2058535e-07 0)
(0.0025275445 1.1362164e-07 0)
(0.0025041467 -1.0708274e-07 0)
(0.002526091 1.0095588e-07 0)
(0.0025055158 -9.5204095e-08 0)
(0.0025247989 8.9820576e-08 0)
(0.002506734 -8.4769716e-08 0)
(0.0025236484 8.0047883e-08 0)
(0.0025078194 -7.5621972e-08 0)
(0.0025226221 7.1490286e-08 0)
(0.0025087886 -6.762258e-08 0)
(0.0025217046 6.4018397e-08 0)
(0.0025096562 -6.0650431e-08 0)
(0.0025208821 5.7519021e-08 0)
(0.0025104353 -5.4599776e-08 0)
(0.002520142 5.1893511e-08 0)
(0.0025111378 -4.937868e-08 0)
(0.0025194732 4.7056347e-08 0)
(0.0025117743 -4.4907715e-08 0)
(0.0025188655 4.2933928e-08 0)
(0.0025123544 -4.1118837e-08 0)
(0.0025183097 3.9463546e-08 0)
(0.002512887 -3.7954458e-08 0)
(0.0025177974 3.659256e-08 0)
(0.0025133801 -3.5366731e-08 0)
(0.0025173209 3.4277854e-08 0)
(0.0025138412 -3.3317175e-08 0)
(0.0025168728 3.2485578e-08 0)
(0.0025142771 -3.1778284e-08 0)
(0.0025164457 3.1188793e-08 0)
(0.0025146945 -3.0741303e-08 0)
(0.002516046 3.0401143e-08 0)
(0.0025151751 -2.9940705e-08 0)
(0.0025159517 3.2030915e-08 0)
(0.0062514435 0.0011594555 0)
(0.0085515569 1.8041604e-06 0)
(0.0071242132 4.8507195e-06 0)
(0.0074445919 3.0693735e-07 0)
(0.0072183626 -6.0562768e-07 0)
(0.0073831024 8.1547517e-07 0)
(0.0072294904 -7.5490113e-07 0)
(0.007369798 7.2649738e-07 0)
(0.0072391459 -6.8636792e-07 0)
(0.0073614282 6.482478e-07 0)
(0.0072466196 -6.0984316e-07 0)
(0.0073543577 5.7472909e-07 0)
(0.0072531373 -5.4075945e-07 0)
(0.0073481693 5.0933107e-07 0)
(0.0072589268 -4.7951526e-07 0)
(0.0073427009 4.5167927e-07 0)
(0.0072640694 -4.2545977e-07 0)
(0.0073378535 4.0090264e-07 0)
(0.0072686371 -3.7783282e-07 0)
(0.0073335492 3.5621388e-07 0)
(0.0072726968 -3.3592984e-07 0)
(0.0073297218 3.1693107e-07 0)
(0.0072763095 -2.9912252e-07 0)
(0.0073263131 2.8245906e-07 0)
(0.0072795296 -2.6685611e-07 0)
(0.0073232716 2.5227632e-07 0)
(0.0072824057 -2.386429e-07 0)
(0.0073205514 2.2592579e-07 0)
(0.0072849815 -2.1405539e-07 0)
(0.0073181113 2.0300773e-07 0)
(0.0072872958 -1.9272022e-07 0)
(0.0073159145 1.8317382e-07 0)
(0.0072893839 -1.7431282e-07 0)
(0.0073139276 1.6612209e-07 0)
(0.0072912774 -1.5855269e-07 0)
(0.0073121204 1.5159259e-07 0)
(0.0072930051 -1.451994e-07 0)
(0.0073104656 1.3936359e-07 0)
(0.0072945932 -1.3404912e-07 0)
(0.0073089381 1.2924843e-07 0)
(0.0072960659 -1.2493178e-07 0)
(0.0073075146 1.2109294e-07 0)
(0.0072974456 -1.1770817e-07 0)
(0.0073061734 1.1477722e-07 0)
(0.0072987528 -1.122613e-07 0)
(0.0073048918 1.1020768e-07 0)
(0.0073000053 -1.0866739e-07 0)
(0.0073036685 1.0643286e-07 0)
(0.0073013734 -1.1043614e-07 0)
(0.0073032028 1.0220369e-07 0)
(0.010015876 0.0018381592 0)
(0.013788475 -9.8734342e-06 0)
(0.011700805 1.2336296e-05 0)
(0.012195303 5.0945334e-07 0)
(0.011824156 -9.3043278e-07 0)
(0.012101215 1.4764466e-06 0)
(0.011843594 -1.3589559e-06 0)
(0.01207983 1.315418e-06 0)
(0.011859966 -1.2471182e-06 0)
(0.01206588 1.17888e-06 0)
(0.011872556 -1.1090052e-06 0)
(0.012053994 1.0456175e-06 0)
(0.011883539 -9.836276e-07 0)
(0.012043576 9.2657446e-07 0)
(0.011893295 -8.7228827e-07 0)
(0.012034366 8.2165656e-07 0)
(0.011901961 -7.7396722e-07 0)
(0.012026201 7.2927203e-07 0)
(0.011909659 -6.8732444e-07 0)
(0.012018951 6.4797085e-07 0)
(0.0119165 -6.1109062e-07 0)
(0.012012503 5.765064e-07 0)
(0.011922589 -5.4412632e-07 0)
(0.012006759 5.1379421e-07 0)
(0.011928017 -4.8542314e-07 0)
(0.012001634 4.5888489e-07 0)
(0.011932865 -4.3409372e-07 0)
(0.01199705 4.109466e-07 0)
(0.011937208 -3.8936006e-07 0)
(0.011992937 3.6925183e-07 0)
(0.011941111 -3.5054256e-07 0)
(0.011989233 3.3316662e-07 0)
(0.011944634 -3.1705031e-07 0)
(0.011985882 3.0214128e-07 0)
(0.011947829 -2.8837261e-07 0)
(0.011982832 2.7570246e-07 0)
(0.011950745 -2.6407148e-07 0)
(0.011980039 2.5344614e-07 0)
(0.011953428 -2.4377522e-07 0)
(0.011977459 2.3503165e-07 0)
(0.011955917 -2.2717294e-07 0)
(0.011975052 2.2017631e-07 0)
(0.011958251 -2.1400829e-07 0)
(0.011972783 2.086594e-07 0)
(0.011960464 -2.0405211e-07 0)
(0.011970613 2.003203e-07 0)
(0.011962586 -1.9743522e-07 0)
(0.011968525 1.93008e-07 0)
(0.011964857 -2.030914e-07 0)
(0.011967578 1.8462453e-07 0)
(0.013926148 0.0025317584 0)
(0.01881757 -1.5071039e-05 0)
(0.016154435 2.2728561e-05 0)
(0.016820565 4.8533533e-07 0)
(0.016304025 -1.0761807e-06 0)
(0.016697823 2.0969018e-06 0)
(0.016333057 -1.9280352e-06 0)
(0.016668719 1.8752794e-06 0)
(0.016356478 -1.7859586e-06 0)
(0.016649075 1.6895188e-06 0)
(0.016374372 -1.589421e-06 0)
(0.016632211 1.4992455e-06 0)
(0.016389984 -1.4101013e-06 0)
(0.016617409 1.3284614e-06 0)
(0.016403852 -1.2505808e-06 0)
(0.016604321 1.1779804e-06 0)
(0.016416169 -1.109637e-06 0)
(0.016592717 1.045509e-06 0)
(0.01642711 -9.8541283e-07 0)
(0.016582411 9.2894087e-07 0)
(0.016436835 -8.7610714e-07 0)
(0.016573246 8.2647969e-07 0)
(0.016445489 -7.8009139e-07 0)
(0.016565083 7.3656787e-07 0)
(0.016453204 -6.9592087e-07 0)
(0.016557798 6.5784326e-07 0)
(0.016460096 -6.2232315e-07 0)
(0.016551282 5.8911269e-07 0)
(0.01646627 -5.5818227e-07 0)
(0.016545435 5.2933274e-07 0)
(0.016471818 -5.0252335e-07 0)
(0.016540169 4.7759412e-07 0)
(0.016476826 -4.5449871e-07 0)
(0.016535404 4.3310844e-07 0)
(0.016481369 -4.1337569e-07 0)
(0.016531068 3.9519671e-07 0)
(0.016485517 -3.7852585e-07 0)
(0.016527095 3.6327926e-07 0)
(0.016489332 -3.4941564e-07 0)
(0.016523425 3.3686686e-07 0)
(0.016492873 -3.255983e-07 0)
(0.016520001 3.1555258e-07 0)
(0.016496195 -3.067039e-07 0)
(0.016516771 2.9901937e-07 0)
(0.016499346 -2.9238481e-07 0)
(0.01651368 2.8705765e-07 0)
(0.016502369 -2.8283234e-07 0)
(0.016510695 2.7598428e-07 0)
(0.016505556 -2.9463939e-07 0)
(0.016509151 2.6366983e-07 0)
(0.017390105 0.0030348699 0)
(0.023603446 -4.0055066e-05 0)
(0.020487692 3.5268187e-05 0)
(0.021320247 3.4583352e-07 0)
(0.020658011 -1.0354607e-06 0)
(0.02117283 2.6442215e-06 0)
(0.020697992 -2.4410201e-06 0)
(0.021136345 2.3817187e-06 0)
(0.020728778 -2.2810905e-06 0)
(0.021110903 2.1591513e-06 0)
(0.020752153 -2.0313575e-06 0)
(0.021088909 1.9170023e-06 0)
(0.020772547 -1.802636e-06 0)
(0.021069584 1.6985e-06 0)
(0.020790661 -1.5988289e-06 0)
(0.021052491 1.5060271e-06 0)
(0.02080675 -1.41866e-06 0)
(0.021037334 1.3366342e-06 0)
(0.02082104 -1.2598366e-06 0)
(0.021023874 1.1875921e-06 0)
(0.020833741 -1.1200801e-06 0)
(0.021011904 1.0565916e-06 0)
(0.020845045 -9.9731496e-07 0)
(0.021001242 9.4163764e-07 0)
(0.02085512 -8.8969552e-07 0)
(0.020991728 8.4098719e-07 0)
(0.020864121 -7.9559467e-07 0)
(0.020983218 7.5311404e-07 0)
(0.020872184 -7.1358501e-07 0)
(0.020975582 6.766836e-07 0)
(0.02087943 -6.424195e-07 0)
(0.020968705 6.1053293e-07 0)
(0.02088597 -5.8101387e-07 0)
(0.020962482 5.5365374e-07 0)
(0.020891903 -5.2843092e-07 0)
(0.02095682 5.051776e-07 0)
(0.020897319 -4.8386676e-07 0)
(0.020951632 4.6436301e-07 0)
(0.020902302 -4.4663863e-07 0)
(0.020946839 4.3058381e-07 0)
(0.020906926 -4.1617445e-07 0)
(0.020942368 4.0331812e-07 0)
(0.020911263 -3.9199913e-07 0)
(0.02093815 3.8216063e-07 0)
(0.020915379 -3.7364512e-07 0)
(0.020934114 3.6687593e-07 0)
(0.020919328 -3.6134791e-07 0)
(0.020930203 3.5205476e-07 0)
(0.020923442 -3.8104935e-07 0)
(0.020927968 3.3610347e-07 0)
(0.021333759 0.0037010902 0)
(0.028181298 -4.6122668e-05 0)
(0.024696535 4.9582385e-05 0)
(0.025692704 -6.3905374e-09 0)
(0.024886381 -8.5284851e-07 0)
(0.025525893 3.1146166e-06 0)
(0.024938822 -2.9029681e-06 0)
(0.025482354 2.8365894e-06 0)
(0.024977209 -2.7351355e-06 0)
(0.025451047 2.5897723e-06 0)
(0.025006199 -2.4367936e-06 0)
(0.025423811 2.300658e-06 0)
(0.025031494 -2.1629308e-06 0)
(0.025399852 2.0382639e-06 0)
(0.025053959 -1.91853e-06 0)
(0.025378657 1.8071957e-06 0)
(0.025073911 -1.7023633e-06 0)
(0.025359862 1.6038922e-06 0)
(0.025091631 -1.5117748e-06 0)
(0.02534317 1.4250322e-06 0)
(0.025107381 -1.3440589e-06 0)
(0.025328327 1.2678294e-06 0)
(0.025121396 -1.1967329e-06 0)
(0.025315107 1.129885e-06 0)
(0.02513389 -1.0675835e-06 0)
(0.02530331 1.0091056e-06 0)
(0.02514505 -9.5465773e-07 0)
(0.025292758 9.0365873e-07 0)
(0.025155045 -8.5624192e-07 0)
(0.025283291 8.1194217e-07 0)
(0.025164029 -7.7083892e-07 0)
(0.025274765 7.3255997e-07 0)
(0.025172136 -6.9714699e-07 0)
(0.025267052 6.6430179e-07 0)
(0.025179491 -6.34041e-07 0)
(0.025260033 6.061252e-07 0)
(0.025186205 -5.8055575e-07 0)
(0.025253602 5.571399e-07 0)
(0.025192381 -5.3587121e-07 0)
(0.025247662 5.1659362e-07 0)
(0.025198112 -4.9929968e-07 0)
(0.025242121 4.8385798e-07 0)
(0.025203486 -4.702683e-07 0)
(0.025236894 4.5844578e-07 0)
(0.025208586 -4.4818766e-07 0)
(0.025231893 4.4011542e-07 0)
(0.02521348 -4.333064e-07 0)
(0.02522704 4.2159663e-07 0)
(0.025218529 -4.6219616e-07 0)
(0.025224032 4.0189489e-07 0)
(0.024455811 0.0040174087 0)
(0.032497313 -8.634284e-05 0)
(0.028791372 6.4366931e-05 0)
(0.029936139 -3.164017e-07 0)
(0.028989231 -5.4822298e-07 0)
(0.029756605 3.5034849e-06 0)
(0.02905598 -3.321401e-06 0)
(0.029706375 3.2428497e-06 0)
(0.029102133 -3.1518976e-06 0)
(0.029669169 2.9845091e-06 0)
(0.02913683 -2.8087617e-06 0)
(0.029636616 2.6529858e-06 0)
(0.029167106 -2.4936223e-06 0)
(0.02960795 2.3502174e-06 0)
(0.029193994 -2.2120131e-06 0)
(0.029582586 2.083676e-06 0)
(0.029217871 -1.9628125e-06 0)
(0.029560094 1.8492285e-06 0)
(0.029239076 -1.7430624e-06 0)
(0.029540119 1.6429915e-06 0)
(0.029257923 -1.5496763e-06 0)
(0.029522356 1.4617343e-06 0)
(0.029274694 -1.3798006e-06 0)
(0.029506536 1.302685e-06 0)
(0.029289643 -1.2308846e-06 0)
(0.029492421 1.163428e-06 0)
(0.029302996 -1.100676e-06 0)
(0.029479795 1.0418491e-06 0)
(0.029314956 -9.8719817e-07 0)
(0.029468468 9.3610035e-07 0)
(0.029325704 -8.8872403e-07 0)
(0.029458268 8.4457168e-07 0)
(0.029335403 -8.0375202e-07 0)
(0.02944904 7.6586718e-07 0)
(0.029344201 -7.3098429e-07 0)
(0.029440643 6.9878448e-07 0)
(0.029352232 -6.6930734e-07 0)
(0.029432952 6.4229652e-07 0)
(0.029359618 -6.1777478e-07 0)
(0.029425847 5.9553481e-07 0)
(0.029366472 -5.755921e-07 0)
(0.029419221 5.57772e-07 0)
(0.029372898 -5.4209532e-07 0)
(0.029412972 5.284442e-07 0)
(0.029378996 -5.1657147e-07 0)
(0.029406994 5.0732098e-07 0)
(0.029384847 -4.9924202e-07 0)
(0.029401186 4.8519371e-07 0)
(0.029390834 -5.3820036e-07 0)
(0.029397339 4.6139038e-07 0)
(0.028410429 0.0046452934 0)
(0.036639515 -9.0330236e-05 0)
(0.032766993 7.9827331e-05 0)
(0.034048167 -5.4597613e-07 0)
(0.032966404 -1.6661423e-07 0)
(0.033864677 3.8027832e-06 0)
(0.033049892 -3.6983076e-06 0)
(0.033808095 3.6008998e-06 0)
(0.033103874 -3.5321256e-06 0)
(0.033764974 3.3437619e-06 0)
(0.033144325 -3.1476977e-06 0)
(0.033727061 2.9743276e-06 0)
(0.033179632 -2.7950536e-06 0)
(0.033693645 2.6346709e-06 0)
(0.033210984 -2.4795751e-06 0)
(0.033664073 2.3357474e-06 0)
(0.033238823 -2.2002701e-06 0)
(0.033637848 2.0728932e-06 0)
(0.033263546 -1.9539337e-06 0)
(0.033614559 1.8416937e-06 0)
(0.033285518 -1.737142e-06 0)
(0.03359385 1.6385062e-06 0)
(0.033305071 -1.5467059e-06 0)
(0.033575407 1.4602171e-06 0)
(0.033322498 -1.3797676e-06 0)
(0.03355895 1.3041157e-06 0)
(0.033338064 -1.2338018e-06 0)
(0.033544232 1.1678309e-06 0)
(0.033352005 -1.1065917e-06 0)
(0.033531028 1.0492903e-06 0)
(0.033364533 -9.9620042e-07 0)
(0.033519139 9.466887e-07 0)
(0.033375838 -9.0094405e-07 0)
(0.033508383 8.584608e-07 0)
(0.033386092 -8.1936714e-07 0)
(0.033498598 7.832584e-07 0)
(0.033395451 -7.5022083e-07 0)
(0.033489634 7.1992951e-07 0)
(0.033404058 -6.9244317e-07 0)
(0.033481355 6.6749929e-07 0)
(0.033412043 -6.4514172e-07 0)
(0.033473636 6.2514912e-07 0)
(0.03341953 -6.0756816e-07 0)
(0.033466356 5.922435e-07 0)
(0.033426633 -5.78886e-07 0)
(0.033459394 5.6857956e-07 0)
(0.033433448 -5.5924758e-07 0)
(0.033452626 5.4298365e-07 0)
(0.033440372 -6.0882743e-07 0)
(0.033447886 5.146285e-07 0)
(0.031365543 0.0048498689 0)
(0.040490023 -0.00014559921 0)
(0.036631947 9.4105843e-05 0)
(0.03802833 -9.7556454e-07 0)
(0.036817865 1.6249558e-07 0)
(0.037849812 3.9789483e-06 0)
(0.036920915 -4.0381785e-06 0)
(0.037787249 3.910116e-06 0)
(0.036982722 -3.8754372e-06 0)
(0.037738205 3.667208e-06 0)
(0.037028934 -3.4531928e-06 0)
(0.037694915 3.2643009e-06 0)
(0.037069289 -3.0668584e-06 0)
(0.037656733 2.8912795e-06 0)
(0.037105121 -2.7208898e-06 0)
(0.037622938 2.5631059e-06 0)
(0.037136936 -2.4144473e-06 0)
(0.037592967 2.2746181e-06 0)
(0.037165189 -2.144133e-06 0)
(0.037566351 2.0209015e-06 0)
(0.037190298 -1.9062297e-06 0)
(0.037542685 1.7979352e-06 0)
(0.03721264 -1.6972485e-06 0)
(0.03752161 1.6022947e-06 0)
(0.037232554 -1.5140549e-06 0)
(0.037502805 1.4310027e-06 0)
(0.03725034 -1.3538771e-06 0)
(0.037485987 1.2814561e-06 0)
(0.037266269 -1.2142816e-06 0)
(0.0374709 1.1513799e-06 0)
(0.037280583 -1.0931421e-06 0)
(0.037457316 1.0387926e-06 0)
(0.037293499 -9.8861008e-07 0)
(0.037445028 9.4197618e-07 0)
(0.037305213 -8.990879e-07 0)
(0.037433849 8.594509e-07 0)
(0.037315905 -8.2320441e-07 0)
(0.037423609 7.8995191e-07 0)
(0.037325735 -7.5979318e-07 0)
(0.037414154 7.3240808e-07 0)
(0.037334856 -7.0787286e-07 0)
(0.037405337 6.8591747e-07 0)
(0.037343406 -6.6661802e-07 0)
(0.037397024 6.4977829e-07 0)
(0.037351516 -6.3507062e-07 0)
(0.037389077 6.2383066e-07 0)
(0.037359297 -6.1327346e-07 0)
(0.037381348 5.9495266e-07 0)
(0.037367155 -6.7374642e-07 0)
(0.037375671 5.6158872e-07 0)
(0.035209545 0.005351502 0)
(0.044216605 -0.00014774639 0)
(0.040376248 0.00010940438 0)
(0.041879848 -1.7060529e-06 0)
(0.040544883 3.3012873e-07 0)
(0.041711802 3.998038e-06 0)
(0.04066934 -4.3483363e-06 0)
(0.041643572 4.1688098e-06 0)
(0.040738923 -4.1822548e-06 0)
(0.041588627 3.9545609e-06 0)
(0.040790875 -3.7251305e-06 0)
(0.041539971 3.5227116e-06 0)
(0.04083627 -3.308881e-06 0)
(0.04149703 3.1198842e-06 0)
(0.040876577 -2.9358117e-06 0)
(0.041459019 2.7656152e-06 0)
(0.040912362 -2.6052142e-06 0)
(0.041425307 2.4542839e-06 0)
(0.040944139 -2.3135457e-06 0)
(0.041395371 2.1805099e-06 0)
(0.040972379 -2.0568384e-06 0)
(0.041368753 1.9399282e-06 0)
(0.040997507 -1.831339e-06 0)
(0.041345049 1.7288355e-06 0)
(0.041019902 -1.6336672e-06 0)
(0.0413239 1.5440161e-06 0)
(0.041039905 -1.4608316e-06 0)
(0.041304986 1.3826597e-06 0)
(0.041057818 -1.3102052e-06 0)
(0.041288019 1.2423109e-06 0)
(0.041073914 -1.1794932e-06 0)
(0.041272743 1.1208311e-06 0)
(0.041088438 -1.0667001e-06 0)
(0.041258925 1.0163665e-06 0)
(0.04110161 -9.7010169e-07 0)
(0.041246355 9.2731983e-07 0)
(0.041113631 -8.8821767e-07 0)
(0.041234843 8.523257e-07 0)
(0.041124684 -8.1978835e-07 0)
(0.041224212 7.9022683e-07 0)
(0.041134937 -7.6375266e-07 0)
(0.041214301 7.4004614e-07 0)
(0.041144547 -7.1921548e-07 0)
(0.041204958 7.01021e-07 0)
(0.041153663 -6.8510091e-07 0)
(0.041196028 6.7304832e-07 0)
(0.041162407 -6.6130497e-07 0)
(0.041187342 6.4111041e-07 0)
(0.041171191 -7.3269214e-07 0)
(0.041180694 6.0232e-07 0)
(0.038249055 0.0055314983 0)
(0.047654392 -0.00021350233 0)
(0.043991449 0.0001219692 0)
(0.045608458 -1.5915287e-06 0)
(0.044151476 6.0784956e-07 0)
(0.04545087 3.9262994e-06 0)
(0.044295552 -4.6143185e-06 0)
(0.045376854 4.3814283e-06 0)
(0.044372709 -4.4517603e-06 0)
(0.045316031 4.2062757e-06 0)
(0.044430348 -3.9635629e-06 0)
(0.045262042 3.749685e-06 0)
(0.044480754 -3.5212157e-06 0)
(0.045214373 3.3205796e-06 0)
(0.044525507 -3.1244278e-06 0)
(0.04517217 2.9433602e-06 0)
(0.044565237 -2.7726489e-06 0)
(0.045134742 2.6119671e-06 0)
(0.044600516 -2.4622418e-06 0)
(0.045101505 2.3205874e-06 0)
(0.044631867 -2.1890308e-06 0)
(0.045071953 2.0645468e-06 0)
(0.044659763 -1.9490339e-06 0)
(0.045045637 1.8398945e-06 0)
(0.044684624 -1.7386554e-06 0)
(0.045022158 1.6432049e-06 0)
(0.044706829 -1.5547109e-06 0)
(0.045001161 1.4714857e-06 0)
(0.044726714 -1.3944038e-06 0)
(0.044982327 1.3221231e-06 0)
(0.044744582 -1.2552909e-06 0)
(0.04496537 1.1928405e-06 0)
(0.044760703 -1.1352481e-06 0)
(0.044950032 1.0816647e-06 0)
(0.044775324 -1.0324396e-06 0)
(0.04493608 9.868955e-07 0)
(0.044788666 -9.4528951e-07 0)
(0.044923302 9.0707909e-07 0)
(0.044800932 -8.7245584e-07 0)
(0.044911504 8.4098227e-07 0)
(0.04481231 -8.1280711e-07 0)
(0.044900506 7.8756099e-07 0)
(0.044822974 -7.6538604e-07 0)
(0.044890139 7.4599738e-07 0)
(0.044833088 -7.2900417e-07 0)
(0.044880233 7.16257e-07 0)
(0.044842789 -7.0337783e-07 0)
(0.0448706 6.815084e-07 0)
(0.044852489 -7.8547834e-07 0)
(0.044862956 6.3694189e-07 0)
(0.041952643 0.0058803801 0)
(0.051018599 -0.00021458872 0)
(0.047476948 0.00013412691 0)
(0.049212659 -1.4827109e-06 0)
(0.047638927 7.971518e-07 0)
(0.049066865 3.7363462e-06 0)
(0.047799805 -4.8441594e-06 0)
(0.048986893 4.5471958e-06 0)
(0.047884285 -4.6847331e-06 0)
(0.048920227 4.4226075e-06 0)
(0.047947534 -4.1688302e-06 0)
(0.048860959 3.9454779e-06 0)
(0.048002897 -3.7041288e-06 0)
(0.04880861 3.4936047e-06 0)
(0.04805205 -3.2869686e-06 0)
(0.04876226 3.0965574e-06 0)
(0.048095685 -2.9169548e-06 0)
(0.048721154 2.7478615e-06 0)
(0.048134428 -2.5904023e-06 0)
(0.048684651 2.4413071e-06 0)
(0.048168858 -2.3029685e-06 0)
(0.048652196 2.171945e-06 0)
(0.048199492 -2.0504772e-06 0)
(0.048623296 1.9356091e-06 0)
(0.048226794 -1.829148e-06 0)
(0.048597512 1.728692e-06 0)
(0.048251177 -1.6356301e-06 0)
(0.048574454 1.5480442e-06 0)
(0.048273013 -1.4669806e-06 0)
(0.048553771 1.3909151e-06 0)
(0.048292633 -1.3206283e-06 0)
(0.04853515 1.2549096e-06 0)
(0.048310336 -1.1943382e-06 0)
(0.048518308 1.1379514e-06 0)
(0.048326389 -1.0861784e-06 0)
(0.048502989 1.0382516e-06 0)
(0.048341039 -9.9449031e-07 0)
(0.048488959 9.5428005e-07 0)
(0.048354506 -9.1786091e-07 0)
(0.048476006 8.8473773e-07 0)
(0.048366997 -8.5509747e-07 0)
(0.048463933 8.2852197e-07 0)
(0.048378703 -8.0518825e-07 0)
(0.048452553 7.8476528e-07 0)
(0.048389804 -7.6683884e-07 0)
(0.048441682 7.5351169e-07 0)
(0.048400453 -7.3955851e-07 0)
(0.048431113 7.162228e-07 0)
(0.048411054 -8.3197806e-07 0)
(0.048422457 6.6562077e-07 0)
(0.045064175 0.0060411051 0)
(0.054104866 -0.0002819045 0)
(0.050838918 0.00014126883 0)
(0.052690655 -1.9494829e-06 0)
(0.051007126 8.1112582e-07 0)
(0.052559622 3.4262137e-06 0)
(0.051182291 -5.0414279e-06 0)
(0.05247352 4.6670333e-06 0)
(0.051273844 -4.881431e-06 0)
(0.052401049 4.6041917e-06 0)
(0.051342597 -4.3412914e-06 0)
(0.052336572 4.1105095e-06 0)
(0.051402843 -3.8579781e-06 0)
(0.05227961 3.6393126e-06 0)
(0.051456333 -3.4237594e-06 0)
(0.052229172 3.2255184e-06 0)
(0.051503815 -3.0384224e-06 0)
(0.05218444 2.862244e-06 0)
(0.051545974 -2.698286e-06 0)
(0.052144719 2.5429151e-06 0)
(0.051583437 -2.3988816e-06 0)
(0.052109402 2.262342e-06 0)
(0.05161677 -2.1358742e-06 0)
(0.052077954 2.0161746e-06 0)
(0.051646476 -1.9053281e-06 0)
(0.052049898 1.8006515e-06 0)
(0.051673008 -1.703753e-06 0)
(0.052024809 1.6124907e-06 0)
(0.051696766 -1.5280824e-06 0)
(0.052002305 1.4488267e-06 0)
(0.051718113 -1.3756375e-06 0)
(0.051982044 1.3071643e-06 0)
(0.051737374 -1.2440898e-06 0)
(0.05196372 1.1853407e-06 0)
(0.05175484 -1.1314266e-06 0)
(0.051947052 1.0814922e-06 0)
(0.051770777 -1.0359194e-06 0)
(0.051931789 9.940242e-07 0)
(0.051785429 -9.5609539e-07 0)
(0.051917698 9.2158203e-07 0)
(0.051799017 -8.9070958e-07 0)
(0.051904564 8.630127e-07 0)
(0.05181175 -8.3870354e-07 0)
(0.051892186 8.1740483e-07 0)
(0.051823824 -7.9868487e-07 0)
(0.051880365 7.8488857e-07 0)
(0.051835406 -7.6993447e-07 0)
(0.051868875 7.4534611e-07 0)
(0.051846893 -8.7211234e-07 0)
(0.051859197 6.8855576e-07 0)
(0.048581884 0.0062471121 0)
(0.057157348 -0.00028191225 0)
(0.054075091 0.00014999638 0)
(0.056044203 -2.1572222e-06 0)
(0.054256119 7.7949388e-07 0)
(0.055929177 3.0498762e-06 0)
(0.054443213 -5.1955493e-06 0)
(0.055836571 4.7444504e-06 0)
(0.054541548 -5.0418082e-06 0)
(0.055758344 4.751783e-06 0)
(0.05461568 -4.4814507e-06 0)
(0.055688746 4.2452826e-06 0)
(0.05468072 -3.9832358e-06 0)
(0.055627252 3.7581454e-06 0)
(0.054738468 -3.5352187e-06 0)
(0.0555728 3.330638e-06 0)
(0.054789727 -3.1374228e-06 0)
(0.055524508 2.9554658e-06 0)
(0.054835239 -2.7862222e-06 0)
(0.055481626 2.6257238e-06 0)
(0.054875681 -2.4770633e-06 0)
(0.055443499 2.3360157e-06 0)
(0.054911663 -2.2054857e-06 0)
(0.05540955 2.0818382e-06 0)
(0.054943731 -1.9674285e-06 0)
(0.055379263 1.859304e-06 0)
(0.054972371 -1.7592873e-06 0)
(0.055352179 1.6650227e-06 0)
(0.054998018 -1.5778953e-06 0)
(0.055327886 1.496035e-06 0)
(0.055021061 -1.4204858e-06 0)
(0.055306015 1.3497642e-06 0)
(0.055041851 -1.2846541e-06 0)
(0.055286235 1.2239771e-06 0)
(0.055060704 -1.1683215e-06 0)
(0.055268244 1.1167489e-06 0)
(0.055077907 -1.0697026e-06 0)
(0.055251769 1.0264324e-06 0)
(0.055093721 -9.8727528e-07 0)
(0.055236559 9.5162721e-07 0)
(0.055108387 -9.1975164e-07 0)
(0.055222384 8.9113835e-07 0)
(0.055122128 -8.6603421e-07 0)
(0.055209026 8.4401639e-07 0)
(0.055135157 -8.2464169e-07 0)
(0.055196272 8.1048304e-07 0)
(0.055147655 -7.9461185e-07 0)
(0.05518388 7.6898574e-07 0)
(0.055160011 -9.0584572e-07 0)
(0.055173178 7.059711e-07 0)
(0.051747788 0.0063829297 0)
(0.059952022 -0.00035044369 0)
(0.057187815 0.00015331923 0)
(0.05927478 -2.4587409e-06 0)
(0.057385524 6.5368846e-07 0)
(0.059175362 2.6041027e-06 0)
(0.057582685 -5.3091935e-06 0)
(0.05907588 4.7799663e-06 0)
(0.057687537 -5.166496e-06 0)
(0.058991971 4.8661551e-06 0)
(0.057766913 -4.5899129e-06 0)
(0.058917357 4.3504146e-06 0)
(0.057836641 -4.0804582e-06 0)
(0.058851429 3.8506406e-06 0)
(0.057898555 -3.6218459e-06 0)
(0.058793049 3.4123914e-06 0)
(0.05795351 -3.2144004e-06 0)
(0.058741273 3.0279488e-06 0)
(0.058002302 -2.8546062e-06 0)
(0.058695299 2.6901077e-06 0)
(0.058045658 -2.537865e-06 0)
(0.058654423 2.393299e-06 0)
(0.058084233 -2.2596246e-06 0)
(0.058618027 2.1328966e-06 0)
(0.058118611 -2.0157279e-06 0)
(0.058585557 1.904914e-06 0)
(0.058149314 -1.8024822e-06 0)
(0.05855652 1.7058766e-06 0)
(0.058176807 -1.6166426e-06 0)
(0.058530477 1.532752e-06 0)
(0.05820151 -1.455374e-06 0)
(0.058507031 1.3829003e-06 0)
(0.058223797 -1.3162124e-06 0)
(0.058485826 1.2540334e-06 0)
(0.058244008 -1.1970277e-06 0)
(0.058466539 1.1441791e-06 0)
(0.058262448 -1.0959903e-06 0)
(0.058448879 1.0516491e-06 0)
(0.0582794 -1.0115393e-06 0)
(0.058432575 9.7500714e-07 0)
(0.05829512 -9.4235285e-07 0)
(0.058417381 9.1302438e-07 0)
(0.058309849 -8.8730217e-07 0)
(0.058403064 8.6471934e-07 0)
(0.058323813 -8.4482711e-07 0)
(0.058389397 8.3040857e-07 0)
(0.058337208 -8.1371409e-07 0)
(0.058376124 7.8726337e-07 0)
(0.05835041 -9.3318278e-07 0)
(0.058364402 7.1811008e-07 0)
(0.055108612 0.0064647724 0)
(0.062746897 -0.00034735381 0)
(0.060182428 0.00015713935 0)
(0.062384889 -2.8265105e-06 0)
(0.060394716 4.2927149e-07 0)
(0.062298131 2.1024747e-06 0)
(0.060600873 -5.3771106e-06 0)
(0.06219132 4.7760419e-06 0)
(0.060711945 -5.2558337e-06 0)
(0.06210181 4.9482373e-06 0)
(0.060796409 -4.6673835e-06 0)
(0.062022299 4.426602e-06 0)
(0.060870707 -4.1502946e-06 0)
(0.061952046 3.9174117e-06 0)
(0.060936682 -3.6842182e-06 0)
(0.061889836 3.4713238e-06 0)
(0.060995241 -3.2698674e-06 0)
(0.061834664 3.080177e-06 0)
(0.061047231 -2.9038926e-06 0)
(0.061785673 2.736497e-06 0)
(0.061093429 -2.5816907e-06 0)
(0.061742117 2.4345742e-06 0)
(0.061134531 -2.2986503e-06 0)
(0.061703334 2.16969e-06 0)
(0.061171162 -2.0505467e-06 0)
(0.061668735 1.9377851e-06 0)
(0.061203876 -1.833624e-06 0)
(0.061637795 1.7353239e-06 0)
(0.061233171 -1.6445807e-06 0)
(0.061610045 1.5592213e-06 0)
(0.061259492 -1.4805326e-06 0)
(0.061585062 1.406792e-06 0)
(0.061283239 -1.3389729e-06 0)
(0.061562468 1.2757083e-06 0)
(0.061304773 -1.2177344e-06 0)
(0.061541918 1.1639637e-06 0)
(0.061324422 -1.1149552e-06 0)
(0.061523101 1.0698403e-06 0)
(0.061342483 -1.0290467e-06 0)
(0.061505731 9.918754e-07 0)
(0.061359231 -9.5866146e-07 0)
(0.061489543 9.288146e-07 0)
(0.061374923 -9.0264713e-07 0)
(0.06147429 8.7965035e-07 0)
(0.061389798 -8.5937554e-07 0)
(0.061459733 8.4479511e-07 0)
(0.061404068 -8.2738007e-07 0)
(0.061445602 8.0031386e-07 0)
(0.061418095 -9.5416453e-07 0)
(0.061432869 7.2522942e-07 0)
(0.058320632 0.0065676518 0)
(0.065306987 -0.0004116474 0)
(0.063054953 0.00015552909 0)
(0.065377774 -3.3939565e-06 0)
(0.063283417 1.4727241e-07 0)
(0.065297389 1.5459284e-06 0)
(0.063497886 -5.3984285e-06 0)
(0.065182762 4.7339228e-06 0)
(0.06361488 -5.3105196e-06 0)
(0.06508775 4.9989883e-06 0)
(0.063704271 -4.7146586e-06 0)
(0.065003476 4.4746245e-06 0)
(0.063783007 -4.1934662e-06 0)
(0.064929018 3.9591453e-06 0)
(0.06385293 -3.7229783e-06 0)
(0.064863086 3.5080436e-06 0)
(0.06391499 -3.3043944e-06 0)
(0.064804613 3.1126903e-06 0)
(0.063970088 -2.9345884e-06 0)
(0.064752691 2.765371e-06 0)
(0.064019047 -2.6089908e-06 0)
(0.06470653 2.4602675e-06 0)
(0.064062606 -2.3229637e-06 0)
(0.064665427 2.1925977e-06 0)
(0.064101426 -2.0722424e-06 0)
(0.06462876 1.9582556e-06 0)
(0.064136095 -1.8530319e-06 0)
(0.06459597 1.7536671e-06 0)
(0.064167141 -1.6619956e-06 0)
(0.064566561 1.5757144e-06 0)
(0.064195034 -1.4962187e-06 0)
(0.064540085 1.4216838e-06 0)
(0.0642202 -1.3531677e-06 0)
(0.06451614 1.289223e-06 0)
(0.064243021 -1.2306522e-06 0)
(0.064494362 1.1763043e-06 0)
(0.064263843 -1.1267902e-06 0)
(0.064474421 1.0811909e-06 0)
(0.064282983 -1.039975e-06 0)
(0.064456013 1.0024032e-06 0)
(0.064300731 -9.6884268e-07 0)
(0.064438859 9.3866922e-07 0)
(0.064317358 -9.1222466e-07 0)
(0.064422697 8.8896148e-07 0)
(0.06433312 -8.6843627e-07 0)
(0.064407274 8.5378732e-07 0)
(0.06434824 -8.357623e-07 0)
(0.064392311 8.0828392e-07 0)
(0.064363068 -9.6886484e-07 0)
(0.064378581 7.2759446e-07 0)
(0.061518852 0.0065387574 0)
(0.067891678 -0.00040491311 0)
(0.065808306 0.00015497836 0)
(0.068256302 -4.0882664e-06 0)
(0.066051514 -1.946439e-07 0)
(0.068173164 9.2294946e-07 0)
(0.066273876 -5.3740203e-06 0)
(0.06805011 4.6541185e-06 0)
(0.066396445 -5.3317316e-06 0)
(0.067949697 5.0192854e-06 0)
(0.066490587 -4.7326709e-06 0)
(0.067860804 4.4953076e-06 0)
(0.066573622 -4.2107705e-06 0)
(0.067782273 3.9765869e-06 0)
(0.066647367 -3.7388295e-06 0)
(0.067712735 3.5232141e-06 0)
(0.066712819 -3.3186048e-06 0)
(0.067651063 3.1260774e-06 0)
(0.066770927 -2.9472466e-06 0)
(0.067596303 2.7772523e-06 0)
(0.06682256 -2.6202571e-06 0)
(0.067547618 2.4708434e-06 0)
(0.066868499 -2.3330023e-06 0)
(0.067504269 2.2020333e-06 0)
(0.066909439 -2.0812048e-06 0)
(0.067465597 1.9666945e-06 0)
(0.066946002 -1.8610541e-06 0)
(0.067431015 1.7612363e-06 0)
(0.066978743 -1.6691993e-06 0)
(0.067399998 1.5825274e-06 0)
(0.067008161 -1.5027129e-06 0)
(0.067372075 1.4278424e-06 0)
(0.067034701 -1.3590503e-06 0)
(0.067346822 1.2948191e-06 0)
(0.067058768 -1.2360114e-06 0)
(0.067323854 1.1814208e-06 0)
(0.067080727 -1.1317056e-06 0)
(0.067302824 1.0859027e-06 0)
(0.067100912 -1.044518e-06 0)
(0.067283411 1.0067772e-06 0)
(0.067119629 -9.7307681e-07 0)
(0.06726532 9.4276297e-07 0)
(0.067137164 -9.1620443e-07 0)
(0.067248277 8.9281848e-07 0)
(0.067153783 -8.7217173e-07 0)
(0.067232016 8.5754301e-07 0)
(0.067169728 -8.3902519e-07 0)
(0.067216248 8.1133087e-07 0)
(0.067185331 -9.7738719e-07 0)
(0.067201539 7.2547503e-07 0)
(0.06473842 0.0066028577 0)
(0.070263443 -0.00046205447 0)
(0.068439641 0.00014911617 0)
(0.071016695 -4.8962184e-06 0)
(0.068699663 -4.8190199e-07 0)
(0.070925233 2.585531e-07 0)
(0.06892893 -5.2947729e-06 0)
(0.070793241 4.5408527e-06 0)
(0.069056711 -5.3195332e-06 0)
(0.070687554 5.0104357e-06 0)
(0.069155429 -4.7223168e-06 0)
(0.070594204 4.4895653e-06 0)
(0.069242617 -4.2030587e-06 0)
(0.070511743 3.9705365e-06 0)
(0.069320054 -3.732528e-06 0)
(0.070438724 3.5175461e-06 0)
(0.06938878 -3.3131682e-06 0)
(0.070373965 3.1209697e-06 0)
(0.069449795 -2.9424615e-06 0)
(0.070316464 2.7727017e-06 0)
(0.06950401 -2.6160172e-06 0)
(0.070265342 2.4668004e-06 0)
(0.069552246 -2.3292356e-06 0)
(0.070219823 2.1984408e-06 0)
(0.069595233 -2.0778525e-06 0)
(0.070179216 1.9634978e-06 0)
(0.069633624 -1.8580647e-06 0)
(0.070142904 1.7583857e-06 0)
(0.069668003 -1.666527e-06 0)
(0.070110335 1.5799781e-06 0)
(0.069698892 -1.5003166e-06 0)
(0.070081015 1.4255543e-06 0)
(0.06972676 -1.3568928e-06 0)
(0.070054498 1.2927559e-06 0)
(0.069752031 -1.234059e-06 0)
(0.070030381 1.1795494e-06 0)
(0.069775088 -1.1299271e-06 0)
(0.070008299 1.0841924e-06 0)
(0.069796282 -1.0428839e-06 0)
(0.069987915 1.0051982e-06 0)
(0.069815935 -9.7155749e-07 0)
(0.06996892 9.4128351e-07 0)
(0.069834345 -9.1476865e-07 0)
(0.069951026 8.9139923e-07 0)
(0.069851794 -8.7075609e-07 0)
(0.069933956 8.5623163e-07 0)
(0.069868536 -8.3734359e-07 0)
(0.06991741 8.0962155e-07 0)
(0.069884885 -9.7986164e-07 0)
(0.069901747 7.1914207e-07 0)
(0.067740407 0.0064755187 0)
(0.072671147 -0.00045066741 0)
(0.070963771 0.00014407199 0)
(0.073652192 -5.5070937e-06 0)
(0.071228178 -6.6990058e-07 0)
(0.073553173 -4.3299342e-07 0)
(0.07146311 -5.1530622e-06 0)
(0.073412048 4.3978183e-06 0)
(0.071595739 -5.2742508e-06 0)