/*--------------------------------*- C++ -*----------------------------------*\
| =========                 |                                                 |
| \\      /  F ield         | OpenFOAM: The Open Source CFD Toolbox           |
|  \\    /   O peration     | Version:  2312                                  |
|   \\  /    A nd           | Website:  www.openfoam.com                      |
|    \\/     M anipulation  |                                                 |
\*---------------------------------------------------------------------------*/
FoamFile
{
    version     2.0;
    format      ascii;
    arch        "LSB;label=32;scalar=64";
    class       volScalarField;
    location    "9";
    object      p;
}
// * * * * * * * * * * * * * * * * * * * * * * * * * * * * * * * * * * * * * //

dimensions      [0 2 -2 0 0 0 0];

internalField   nonuniform List<scalar> 
4000
(
39.825886
37.745058
36.001542
35.036246
33.870582
33.17813
32.216043
31.59966
30.701433
30.091648
29.218578
28.598543
27.741579
27.108721
26.265062
25.620093
24.788036
24.132302
23.310379
22.645208
21.832123
21.158705
20.353334
19.672712
18.874078
18.187159
17.394414
16.701993
15.91439
15.217168
14.434044
13.732649
12.953409
12.248406
11.472512
10.764414
9.9913741
9.2806529
8.510015
7.797105
7.0284503
6.3137558
5.5466934
4.8305932
4.0647548
3.3476079
2.5826432
1.864795
1.1003679
0.38215193
39.78721
37.744354
36.003023
35.03613
33.87067
33.178113
32.216059
31.599662
30.70144
30.091644
29.218583
28.598538
27.741584
27.108717
26.265066
25.62009
24.78804
24.132299
23.310381
22.645205
21.832125
21.158703
20.353336
19.67271
18.87408
18.187157
17.394416
16.701991
15.914391
15.217166
14.434046
13.732647
12.953411
12.248404
11.472513
10.764413
9.9913752
9.2806518
8.510016
7.797104
7.0284513
6.3137548
5.5466943
4.8305923
4.0647557
3.347607
2.5826441
1.8647941
1.1003688
0.38215026
39.765537
37.745057
36.005252
35.035843
33.870819
33.178098
32.216081
31.599677
30.701441
30.091648
29.218582
28.59854
27.741582
27.108718
26.265065
25.620091
24.788039
24.1323
23.310381
22.645206
21.832125
21.158704
20.353335
19.67271
18.87408
18.187158
17.394416
16.701991
15.914391
15.217167
14.434045
13.732648
12.95341
12.248405
11.472513
10.764413
9.9913749
9.2806521
8.5100157
7.7971043
7.0284511
6.3137551
5.5466941
4.8305925
4.0647554
3.3476072
2.5826439
1.8647944
1.1003687
0.38214969
39.725249
37.741022
36.007342
35.035464
33.87097
33.178075
32.216101
31.599693
30.70144
30.091654
29.218579
28.598543
27.74158
27.108721
26.265062
25.620093
24.788037
24.132302
23.310379
22.645208
21.832123
21.158705
20.353334
19.672712
18.874078
18.187159
17.394414
16.701992
15.91439
15.217168
14.434044
13.732649
12.953409
12.248405
11.472512
10.764414
9.9913742
9.2806528
8.510015
7.797105
7.0284504
6.3137557
5.5466935
4.8305932
4.0647548
3.3476078
2.5826433
1.864795
1.1003681
0.38214957
39.671257
37.736909
36.00918
35.034997
33.871136
33.178039
32.21612
31.599705
30.701437
30.091658
29.218576
28.598546
27.741577
27.108723
26.26506
25.620095
24.788035
24.132304
23.310377
22.645209
21.832121
21.158707
20.353333
19.672713
18.874077
18.18716
17.394413
16.701993
15.914389
15.217169
14.434043
13.732649
12.953409
12.248406
11.472511
10.764415
9.9913735
9.2806535
8.5100144
7.7971056
7.0284498
6.3137563
5.5466929
4.8305937
4.0647543
3.3476084
2.5826428
1.8647956
1.1003677
0.3821495
39.642885
37.7333
36.010406
35.034681
33.87136
33.177993
32.216138
31.599713
30.701435
30.091662
29.218573
28.598548
27.741575
27.108725
26.265059
25.620097
24.788033
24.132305
23.310376
22.64521
21.83212
21.158708
20.353332
19.672714
18.874076
18.187161
17.394412
16.701994
15.914388
15.217169
14.434043
13.73265
12.953408
12.248407
11.472511
10.764415
9.991373
9.2806539
8.5100139
7.797106
7.0284494
6.3137567
5.5466925
4.8305941
4.0647539
3.3476088
2.5826424
1.864796
1.1003673
0.38214941
39.599824
37.731143
36.010424
35.035119
33.871695
33.177948
32.216158
31.599717
30.701432
30.091664
29.218571
28.598549
27.741574
27.108726
26.265057
25.620098
24.788032
24.132306
23.310375
22.645211
21.832119
21.158709
20.353331
19.672715
18.874076
18.187162
17.394412
16.701995
15.914388
15.21717
14.434042
13.73265
12.953408
12.248407
11.47251
10.764415
9.9913726
9.2806543
8.5100136
7.7971064
7.028449
6.3137571
5.5466921
4.8305944
4.0647536
3.3476091
2.5826421
1.8647964
1.1003669
0.38214934
39.57304
37.731252
36.008681
35.036506
33.872018
33.177901
32.216178
31.599718
30.701429
30.091665
29.218569
28.59855
27.741572
27.108727
26.265056
25.620099
24.788031
24.132307
23.310374
22.645212
21.832119
21.158709
20.35333
19.672715
18.874075
18.187162
17.394411
16.701995
15.914387
15.21717
14.434042
13.732651
12.953407
12.248408
11.47251
10.764416
9.9913722
9.2806547
8.5100132
7.7971067
7.0284487
6.3137574
5.5466918
4.8305947
4.0647533
3.3476094
2.5826418
1.8647967
1.1003666
0.38214928
39.544567
37.728977
36.007588
35.038212
33.872094
33.177866
32.216198
31.599715
30.701425
30.091666
29.218567
28.598551
27.741571
27.108728
26.265055
25.6201
24.78803
24.132308
23.310373
22.645213
21.832118
21.15871
20.35333
19.672716
18.874074
18.187163
17.394411
16.701996
15.914387
15.217171
14.434041
13.732651
12.953407
12.248408
11.472509
10.764416
9.9913719
9.280655
8.5100129
7.797107
7.0284484
6.3137577
5.5466916
4.830595
4.064753
3.3476096
2.5826415
1.864797
1.1003663
0.38214923
39.50966
37.724611
36.008378
35.039376
33.871836
33.177866
32.216216
31.599707
30.70142
30.091665
29.218565
28.598552
27.741569
27.108729
26.265054
25.620101
24.78803
24.132309
23.310373
22.645214
21.832117
21.158711
20.353329
19.672716
18.874074
18.187163
17.39441
16.701996
15.914386
15.217171
14.434041
13.732652
12.953406
12.248408
11.472509
10.764416
9.9913716
9.2806552
8.5100127
7.7971072
7.0284482
6.3137579
5.5466913
4.8305952
4.0647528
3.3476099
2.5826413
1.8647973
1.100366
0.3821492
39.481607
37.71973
36.008673
35.039487
33.87131
33.177869
32.216214
31.599689
30.701413
30.091663
29.218562
28.598552
27.741568
27.10873
26.265053
25.620101
24.788029
24.13231
23.310372
22.645214
21.832117
21.158711
20.353329
19.672717
18.874074
18.187164
17.39441
16.701997
15.914386
15.217171
14.434041
13.732652
12.953406
12.248409
11.472509
10.764417
9.9913714
9.2806555
8.5100124
7.7971075
7.028448
6.3137581
5.5466911
4.8305954
4.0647526
3.3476101
2.5826411
1.8647975
1.1003657
0.38214918
39.457535
37.714935
36.007171
35.038848
33.870712
33.17782
32.21618
31.59966
30.701402
30.091659
29.218559
28.598552
27.741567
27.10873
26.265053
25.620102
24.788028
24.13231
23.310371
22.645215
21.832116
21.158712
20.353328
19.672717
18.874073
18.187164
17.39441
16.701997
15.914386
15.217172
14.43404
13.732652
12.953406
12.248409
11.472509
10.764417
9.9913712
9.2806557
8.5100122
7.7971077
7.0284478
6.3137583
5.546691
4.8305956
4.0647524
3.3476102
2.582641
1.8647977
1.1003655
0.38214916
39.436277
37.708422
36.004903
35.037971
33.870143
33.177686
32.21611
31.59962
30.701387
30.091653
29.218555
28.598552
27.741566
27.108731
26.265052
25.620102
24.788028
24.132311
23.310371
22.645215
21.832116
21.158712
20.353328
19.672718
18.874073
18.187164
17.394409
16.701997
15.914385
15.217172
14.43404
13.732652
12.953406
12.248409
11.472508
10.764417
9.991371
9.2806559
8.5100121
7.7971078
7.0284476
6.3137585
5.5466908
4.8305958
4.0647523
3.3476104
2.5826408
1.8647979
1.1003652
0.38214916
39.415635
37.702072
36.002233
35.036974
33.869588
33.177482
32.216017
31.599572
30.701372
30.091645
29.21855
28.598551
27.741564
27.108731
26.265051
25.620103
24.788027
24.132311
23.31037
22.645216
21.832115
21.158712
20.353327
19.672718
18.874072
18.187165
17.394409
16.701998
15.914385
15.217172
14.43404
13.732653
12.953405
12.248409
11.472508
10.764417
9.9913708
9.2806561
8.5100119
7.797108
7.0284474
6.3137586
5.5466906
4.8305959
4.0647521
3.3476106
2.5826407
1.8647981
1.100365
0.38214915
39.398942
37.695195
35.999431
35.035919
33.869017
33.177239
32.215914
31.599519
30.701356
30.091637
29.218545
28.598549
27.741563
27.108731
26.26505
25.620103
24.788027
24.132311
23.31037
22.645216
21.832115
21.158713
20.353327
19.672718
18.874072
18.187165
17.394409
16.701998
15.914385
15.217172
14.43404
13.732653
12.953405
12.248409
11.472508
10.764417
9.9913706
9.2806562
8.5100117
7.7971082
7.0284473
6.3137588
5.5466905
4.8305961
4.064752
3.3476107
2.5826406
1.8647982
1.1003647
0.38214916
39.381031
37.688623
35.996744
35.034727
33.868399
33.176977
32.215808
31.599464
30.701343
30.091628
29.21854
28.598548
27.741561
27.108731
26.26505
25.620104
24.788026
24.132312
23.31037
22.645216
21.832115
21.158713
20.353327
19.672719
18.874072
18.187165
17.394409
16.701998
15.914385
15.217173
14.434039
13.732653
12.953405
12.24841
11.472508
10.764418
9.9913705
9.2806564
8.5100116
7.7971083
7.0284472
6.3137589
5.5466904
4.8305962
4.0647519
3.3476108
2.5826405
1.8647983
1.1003645
0.38214917
39.363068
37.681169
35.994339
35.033358
33.867748
33.176717
32.215705
31.59941
30.701331
30.091621
29.218535
28.598547
27.74156
27.108731
26.265049
25.620104
24.788026
24.132312
23.310369
22.645217
21.832114
21.158713
20.353326
19.672719
18.874072
18.187165
17.394408
16.701998
15.914384
15.217173
14.434039
13.732653
12.953405
12.24841
11.472508
10.764418
9.9913703
9.2806565
8.5100115
7.7971084
7.028447
6.313759
5.5466903
4.8305963
4.0647517
3.3476109
2.5826404
1.8647985
1.1003643
0.38214918
39.351449
37.675698
35.992487
35.031953
33.867125
33.176479
32.215609
31.59936
30.701321
30.091615
29.218532
28.598546
27.741559
27.108731
26.265049
25.620104
24.788025
24.132312
23.310369
22.645217
21.832114
21.158714
20.353326
19.672719
18.874071
18.187166
17.394408
16.701998
15.914384
15.217173
14.434039
13.732653
12.953405
12.24841
11.472508
10.764418
9.9913702
9.2806566
8.5100113
7.7971085
7.0284469
6.3137591
5.5466902
4.8305964
4.0647516
3.347611
2.5826403
1.8647986
1.1003641
0.38214919
39.344353
37.669826
35.990803
35.030608
33.866568
33.176273
32.215522
31.599316
30.701311
30.09161
29.21853
28.598545
27.741558
27.108731
26.265048
25.620104
24.788025
24.132313
23.310369
22.645217
21.832114
21.158714
20.353326
19.672719
18.874071
18.187166
17.394408
16.701999
15.914384
15.217173
14.434039
13.732654
12.953405
12.24841
11.472508
10.764418
9.9913701
9.2806567
8.5100112
7.7971086
7.0284468
6.3137592
5.5466901
4.8305965
4.0647516
3.3476111
2.5826402
1.8647987
1.1003639
0.3821492
39.329595
37.663926
35.988982
35.029355
33.866085
33.1761
32.215447
31.599279
30.701302
30.091604
29.218529
28.598544
27.741557
27.108731
26.265047
25.620105
24.788025
24.132313
23.310368
22.645217
21.832114
21.158714
20.353326
19.672719
18.874071
18.187166
17.394408
16.701999
15.914384
15.217173
14.434039
13.732654
12.953404
12.24841
11.472507
10.764418
9.99137
9.2806568
8.5100111
7.7971087
7.0284467
6.3137593
5.54669
4.8305966
4.0647515
3.3476112
2.5826401
1.8647987
1.1003638
0.38214922
39.320287
37.658381
35.98694
35.028203
33.865657
33.175955
32.215383
31.599249
30.701295
30.091598
29.21853
28.598544
27.741556
27.108731
26.265047
25.620105
24.788024
24.132313
23.310368
22.645218
21.832113
21.158714
20.353326
19.67272
18.874071
18.187166
17.394408
16.701999
15.914384
15.217173
14.434039
13.732654
12.953404
12.24841
11.472507
10.764418
9.9913699
9.2806569
8.510011
7.7971088
7.0284466
6.3137594
5.5466899
4.8305967
4.0647514
3.3476113
2.58264
1.8647988
1.1003636
0.38214924
39.309781
37.653816
35.984929
35.027177
33.865277
33.175831
32.215328
31.599223
30.701289
30.091591
29.218531
28.598544
27.741555
27.108731
26.265047
25.620105
24.788024
24.132313
23.310368
22.645218
21.832113
21.158714
20.353325
19.67272
18.874071
18.187166
17.394407
16.701999
15.914384
15.217174
14.434039
13.732654
12.953404
12.24841
11.472507
10.764418
9.9913698
9.280657
8.510011
7.7971089
7.0284466
6.3137595
5.5466898
4.8305967
4.0647513
3.3476114
2.58264
1.8647989
1.1003634
0.38214926
39.303699
37.649995
35.983022
35.026277
33.864934
33.175723
32.215279
31.599201
30.701285
30.091584
29.218533
28.598544
27.741555
27.108732
26.265046
25.620105
24.788024
24.132314
23.310368
22.645218
21.832113
21.158715
20.353325
19.67272
18.874071
18.187166
17.394407
16.701999
15.914384
15.217174
14.434038
13.732654
12.953404
12.24841
11.472507
10.764418
9.9913697
9.2806571
8.5100109
7.797109
7.0284465
6.3137595
5.5466897
4.8305968
4.0647513
3.3476114
2.5826399
1.8647989
1.1003633
0.38214928
39.296287
37.646525
35.981303
35.025482
33.864627
33.175628
32.215234
31.599181
30.701281
30.091577
29.218534
28.598544
27.741555
27.108732
26.265046
25.620105
24.788023
24.132314
23.310367
22.645218
21.832113
21.158715
20.353325
19.67272
18.87407
18.187167
17.394407
16.701999
15.914383
15.217174
14.434038
13.732654
12.953404
12.248411
11.472507
10.764419
9.9913696
9.2806572
8.5100108
7.797109
7.0284464
6.3137596
5.5466897
4.8305969
4.0647512
3.3476115
2.5826399
1.864799
1.1003631
0.3821493
39.291481
37.643472
35.97971
35.024776
33.86435
33.175544
32.215194
31.599163
30.701277
30.091569
29.218536
28.598544
27.741555
27.108732
26.265046
25.620105
24.788023
24.132314
23.310367
22.645218
21.832113
21.158715
20.353325
19.67272
18.87407
18.187167
17.394407
16.701999
15.914383
15.217174
14.434038
13.732654
12.953404
12.248411
11.472507
10.764419
9.9913696
9.2806572
8.5100107
7.7971091
7.0284464
6.3137597
5.5466896
4.8305969
4.0647511
3.3476116
2.5826398
1.864799
1.100363
0.38214932
39.285892
37.640493
35.978282
35.02415
33.864106
33.175473
32.215159
31.599148
30.701275
30.091562
29.218537
28.598544
27.741555
27.108732
26.265045
25.620106
24.788023
24.132314
23.310367
22.645218
21.832113
21.158715
20.353325
19.67272
18.87407
18.187167
17.394407
16.701999
15.914383
15.217174
14.434038
13.732654
12.953404
12.248411
11.472507
10.764419
9.9913695
9.2806573
8.5100107
7.7971092
7.0284463
6.3137597
5.5466896
4.830597
4.0647511
3.3476116
2.5826398
1.8647991
1.1003629
0.38214934
39.281836
37.638092
35.97699
35.023603
33.863893
33.175414
32.215129
31.599135
30.701272
30.091556
29.218537
28.598544
27.741556
27.108732
26.265045
25.620106
24.788023
24.132314
23.310367
22.645219
21.832112
21.158715
20.353325
19.67272
18.87407
18.187167
17.394407
16.702
15.914383
15.217174
14.434038
13.732654
12.953404
12.248411
11.472507
10.764419
9.9913694
9.2806574
8.5100106
7.7971092
7.0284463
6.3137598
5.5466895
4.830597
4.064751
3.3476117
2.5826397
1.8647991
1.1003628
0.38214935
39.27765
37.635722
35.975867
35.023133
33.863713
33.175367
32.215104
31.599125
30.70127
30.091551
29.218538
28.598543
27.741556
27.108733
26.265045
25.620106
24.788022
24.132314
23.310367
22.645219
21.832112
21.158715
20.353325
19.672721
18.87407
18.187167
17.394407
16.702
15.914383
15.217174
14.434038
13.732654
12.953404
12.248411
11.472507
10.764419
9.9913694
9.2806574
8.5100106
7.7971093
7.0284462
6.3137598
5.5466895
4.8305971
4.064751
3.3476117
2.5826397
1.8647991
1.1003627
0.38214937
39.274274
37.634
35.974899
35.022741
33.863562
33.175333
32.215084
31.599118
30.701269
30.091546
29.218539
28.598542
27.741557
27.108733
26.265045
25.620106
24.788022
24.132314
23.310366
22.645219
21.832112
21.158715
20.353324
19.672721
18.87407
18.187167
17.394407
16.702
15.914383
15.217174
14.434038
13.732654
12.953404
12.248411
11.472507
10.764419
9.9913693
9.2806575
8.5100105
7.7971093
7.0284462
6.3137599
5.5466894
4.8305971
4.064751
3.3476117
2.5826396
1.8647991
1.1003626
0.38214939
39.271287
37.632182
35.97408
35.022418
33.863442
33.17531
32.215069
31.599113
30.701268
30.091543
29.218539
28.598541
27.741559
27.108734
26.265045
25.620106
24.788022
24.132314
23.310366
22.645219
21.832112
21.158715
20.353324
19.672721
18.87407
18.187167
17.394407
16.702
15.914383
15.217174
14.434038
13.732655
12.953404
12.248411
11.472507
10.764419
9.9913693
9.2806575
8.5100105
7.7971094
7.0284461
6.3137599
5.5466894
4.8305971
4.0647509
3.3476118
2.5826396
1.8647992
1.1003625
0.38214941
39.268434
37.631033
35.973415
35.022164
33.863349
33.175296
32.215059
31.59911
30.701268
30.09154
29.21854
28.598539
27.74156
27.108734
26.265045
25.620106
24.788022
24.132314
23.310366
22.645219
21.832112
21.158715
20.353324
19.672721
18.87407
18.187167
17.394407
16.702
15.914383
15.217174
14.434038
13.732655
12.953404
12.248411
11.472507
10.764419
9.9913693
9.2806575
8.5100105
7.7971094
7.0284461
6.3137599
5.5466894
4.8305972
4.0647509
3.3476118
2.5826396
1.8647992
1.1003624
0.38214942
39.266468
37.629662
35.972858
35.021965
33.863281
33.175292
32.215053
31.599109
30.701269
30.091538
29.218541
28.598537
27.741561
27.108734
26.265045
25.620106
24.788022
24.132314
23.310366
22.645219
21.832112
21.158715
20.353324
19.672721
18.87407
18.187167
17.394406
16.702
15.914383
15.217174
14.434038
13.732655
12.953404
12.248411
11.472507
10.764419
9.9913692
9.2806576
8.5100104
7.7971094
7.0284461
6.31376
5.5466893
4.8305972
4.0647509
3.3476118
2.5826396
1.8647992
1.1003623
0.38214943
39.263847
37.628913
35.972441
35.021821
33.863234
33.175295
32.215051
31.599109
30.70127
30.091536
29.218543
28.598535
27.741562
27.108735
26.265045
25.620107
24.788022
24.132315
23.310366
22.645219
21.832112
21.158715
20.353324
19.672721
18.87407
18.187167
17.394406
16.702
15.914383
15.217174
14.434038
13.732655
12.953403
12.248411
11.472507
10.764419
9.9913692
9.2806576
8.5100104
7.7971095
7.028446
6.31376
5.5466893
4.8305972
4.0647508
3.3476119
2.5826395
1.8647992
1.1003623
0.38214944
39.262697
37.627953
35.972105
35.021721
33.863208
33.175304
32.215052
31.599111
30.701272
30.091535
29.218544
28.598534
27.741562
27.108735
26.265046
25.620107
24.788022
24.132315
23.310366
22.645219
21.832112
21.158716
20.353324
19.672721
18.87407
18.187167
17.394406
16.702
15.914383
15.217174
14.434038
13.732655
12.953403
12.248411
11.472506
10.764419
9.9913692
9.2806576
8.5100104
7.7971095
7.028446
6.31376
5.5466893
4.8305973
4.0647508
3.3476119
2.5826395
1.8647992
1.1003622
0.38214945
39.260408
37.627496
35.9719
35.02167
33.863199
33.175319
32.215057
31.599115
30.701274
30.091535
29.218545
28.598533
27.741563
27.108736
26.265046
25.620107
24.788022
24.132315
23.310366
22.645219
21.832112
21.158716
20.353324
19.672721
18.874069
18.187167
17.394406
16.702
15.914383
15.217174
14.434038
13.732655
12.953403
12.248411
11.472506
10.764419
9.9913691
9.2806577
8.5100103
7.7971095
7.028446
6.31376
5.5466893
4.8305973
4.0647508
3.3476119
2.5826395
1.8647992
1.1003622
0.38214945
39.259733
37.626929
35.971769
35.021655
33.863207
33.175339
32.215064
31.59912
30.701276
30.091535
29.218546
28.598532
27.741563
27.108736
26.265046
25.620107
24.788021
24.132315
23.310366
22.645219
21.832111
21.158716
20.353324
19.672721
18.874069
18.187167
17.394406
16.702
15.914383
15.217174
14.434038
13.732655
12.953403
12.248411
11.472506
10.764419
9.9913691
9.2806577
8.5100103
7.7971095
7.028446
6.31376
5.5466892
4.8305973
4.0647508
3.3476119
2.5826395
1.8647992
1.1003622
0.38214945
39.258004
37.626767
35.971745
35.021677
33.863228
33.175362
32.215074
31.599125
30.701279
30.091535
29.218547
28.598532
27.741562
27.108736
26.265047
25.620107
24.788021
24.132315
23.310366
22.645219
21.832111
21.158716
20.353324
19.672721
18.874069
18.187167
17.394406
16.702
15.914383
15.217175
14.434038
13.732655
12.953403
12.248411
11.472506
10.764419
9.9913691
9.2806577
8.5100103
7.7971095
7.028446
6.31376
5.5466892
4.8305973
4.0647508
3.3476119
2.5826395
1.8647992
1.1003622
0.38214944
39.257825
37.626491
35.971756
35.021716
33.863256
33.175386
32.215084
31.599131
30.701282
30.091536
29.218548
28.598532
27.741562
27.108737
26.265047
25.620108
24.788021
24.132315
23.310365
22.645219
21.832111
21.158716
20.353324
19.672721
18.874069
18.187167
17.394406
16.702
15.914383
15.217175
14.434038
13.732655
12.953403
12.248411
11.472506
10.764419
9.9913691
9.2806577
8.5100103
7.7971095
7.028446
6.3137601
5.5466892
4.8305973
4.0647508
3.3476119
2.5826395
1.8647992
1.1003622
0.38214943
39.256631
37.626567
35.971831
35.021765
33.863282
33.175405
32.215092
31.599136
30.701284
30.091537
29.218548
28.598532
27.741562
27.108737
26.265047
25.620108
24.788021
24.132315
23.310365
22.645219
21.832111
21.158716
20.353324
19.672721
18.874069
18.187167
17.394406
16.702
15.914383
15.217175
14.434038
13.732655
12.953403
12.248411
11.472506
10.764419
9.9913691
9.2806577
8.5100103
7.7971095
7.028446
6.3137601
5.5466892
4.8305973
4.0647508
3.3476119
2.5826395
1.8647992
1.1003622
0.3821494
39.256885
37.626547
35.971877
35.021795
33.863299
33.175416
32.215097
31.599139
30.701285
30.091538
29.218549
28.598532
27.741563
27.108736
26.265047
25.620108
24.788021
24.132315
23.310365
22.645219
21.832111
21.158716
20.353324
19.672721
18.874069
18.187167
17.394406
16.702
15.914383
15.217175
14.434038
13.732655
12.953403
12.248411
11.472506
10.764419
9.9913691
9.2806577
8.5100103
7.7971095
7.028446
6.31376
5.5466892
4.8305973
4.0647508
3.3476119
2.5826395
1.8647992
1.1003623
0.38214939
39.256134
37.626756
35.971914
35.021793
33.863297
33.175415
32.215097
31.599139
30.701285
30.091538
29.218549
28.598532
27.741563
27.108736
26.265047
25.620108
24.788021
24.132315
23.310365
22.645219
21.832111
21.158716
20.353324
19.672721
18.874069
18.187167
17.394406
16.702
15.914383
15.217175
14.434038
13.732655
12.953403
12.248411
11.472506
10.764419
9.9913691
9.2806577
8.5100103
7.7971095
7.028446
6.31376
5.5466892
4.8305973
4.0647508
3.3476119
2.5826395
1.8647992
1.1003623
0.38214939
39.256863
37.626817
35.971874
35.021755
33.863276
33.175401
32.215091
31.599136
30.701285
30.091537
29.218548
28.598532
27.741562
27.108737
26.265047
25.620108
24.788021
24.132315
23.310365
22.645219
21.832111
21.158716
20.353324
19.672721
18.874069
18.187167
17.394406
16.702
15.914383
15.217175
14.434038
13.732655
12.953403
12.248411
11.472506
10.764419
9.9913691
9.2806577
8.5100103
7.7971095
7.028446
6.3137601
5.5466892
4.8305973
4.0647508
3.3476119
2.5826395
1.8647992
1.1003622
0.3821494
39.256505
37.627193
35.971869
35.021705
33.863244
33.175379
32.215082
31.599132
30.701283
30.091536
29.218548
28.598532
27.741562
27.108737
26.265047
25.620108
24.788021
24.132315
23.310365
22.645219
21.832111
21.158716
20.353324
19.672721
18.874069
18.187167
17.394406
16.702
15.914383
15.217175
14.434038
13.732655
12.953403
12.248411
11.472506
10.764419
9.9913691
9.2806577
8.5100103
7.7971095
7.028446
6.3137601
5.5466892
4.8305973
4.0647508
3.3476119
2.5826395
1.8647992
1.1003622
0.38214943
39.257668
37.627536
35.971868
35.02166
33.863213
33.175354
32.215072
31.599127
30.70128
30.091535
29.218547
28.598532
27.741562
27.108736
26.265047
25.620107
24.788021
24.132315
23.310366
22.645219
21.832111
21.158716
20.353324
19.672721
18.874069
18.187167
17.394406
16.702
15.914383
15.217175
14.434038
13.732655
12.953403
12.248411
11.472506
10.764419
9.9913691
9.2806577
8.5100103
7.7971095
7.028446
6.31376
5.5466892
4.8305973
4.0647508
3.3476119
2.5826395
1.8647992
1.1003622
0.38214944
39.25777
37.628163
35.97197
35.021637
33.863188
33.175329
32.215062
31.599122
30.701278
30.091535
29.218546
28.598532
27.741563
27.108736
26.265046
25.620107
24.788021
24.132315
23.310366
22.645219
21.832111
21.158716
20.353324
19.672721
18.874069
18.187167
17.394406
16.702
15.914383
15.217174
14.434038
13.732655
12.953403
12.248411
11.472506
10.764419
9.9913691
9.2806577
8.5100103
7.7971095
7.028446
6.31376
5.5466892
4.8305973
4.0647508
3.3476119
2.5826395
1.8647992
1.1003622
0.38214945
39.259558
37.628783
35.972112
35.021647
33.863176
33.175307
32.215054
31.599118
30.701275
30.091535
29.218545
28.598533
27.741562
27.108736
26.265046
25.620107
24.788022
24.132315
23.310366
22.645219
21.832112
21.158716
20.353324
19.672721
18.874069
18.187167
17.394406
16.702
15.914383
15.217174
14.434038
13.732655
12.953403
12.248411
11.472506
10.764419
9.9913691
9.2806577
8.5100103
7.7971095
7.028446
6.31376
5.5466893
4.8305973
4.0647508
3.3476119
2.5826395
1.8647992
1.1003622
0.38214945
39.260126
37.629739
35.972402
35.021698
33.86318
33.175289
32.215049
31.599115
30.701274
30.091535
29.218544
28.598534
27.741562
27.108735
26.265045
25.620107
24.788022
24.132315
23.310366
22.645219
21.832112
21.158716
20.353324
19.672721
18.87407
18.187167
17.394406
16.702
15.914383
15.217174
14.434038
13.732655
12.953403
12.248411
11.472506
10.764419
9.9913692
9.2806576
8.5100104
7.7971095
7.028446
6.31376
5.5466893
4.8305973
4.0647508
3.3476119
2.5826395
1.8647992
1.1003622
0.38214945
39.262416
37.630683
35.972743
35.021796
33.863204
33.175278
32.215047
31.599113
30.701272
30.091537
29.218543
28.598535
27.741562
27.108735
26.265045
25.620107
24.788022
24.132315
23.310366
22.645219
21.832112
21.158715
20.353324
19.672721
18.87407
18.187167
17.394406
16.702
15.914383
15.217174
14.434038
13.732655
12.953403
12.248411
11.472507
10.764419
9.9913692
9.2806576
8.5100104
7.7971095
7.028446
6.31376
5.5466893
4.8305972
4.0647508
3.3476119
2.5826395
1.8647992
1.1003623
0.38214944
39.263545
37.632101
35.973261
35.021942
33.863247
33.175273
32.215049
31.599113
30.701271
30.091538
29.218542
28.598537
27.741561
27.108735
26.265045
25.620106
24.788022
24.132314
23.310366
22.645219
21.832112
21.158715
20.353324
19.672721
18.87407
18.187167
17.394406
16.702
15.914383
15.217174
14.434038
13.732655
12.953404
12.248411
11.472507
10.764419
9.9913692
9.2806576
8.5100104
7.7971094
7.0284461
6.31376
5.5466893
4.8305972
4.0647509
3.3476118
2.5826396
1.8647992
1.1003623
0.38214943
39.266104
37.633313
35.973824
35.022141
33.863312
33.175275
32.215054
31.599114
30.701271
30.091541
29.218541
28.598539
27.74156
27.108734
26.265045
25.620106
24.788022
24.132314
23.310366
22.645219
21.832112
21.158715
20.353324
19.672721
18.87407
18.187167
17.394407
16.702
15.914383
15.217174
14.434038
13.732655
12.953404
12.248411
11.472507
10.764419
9.9913693
9.2806575
8.5100105
7.7971094
7.0284461
6.3137599
5.5466894
4.8305972
4.0647509
3.3476118
2.5826396
1.8647992
1.1003624
0.38214942
39.268253
37.635246
35.974586
35.022396
33.863402
33.175287
32.215064
31.599118
30.701271
30.091544
29.21854
28.598541
27.741559
27.108734
26.265045
25.620106
24.788022
24.132314
23.310366
22.645219
21.832112
21.158715
20.353324
19.672721
18.87407
18.187167
17.394407
16.702
15.914383
15.217174
14.434038
13.732655
12.953404
12.248411
11.472507
10.764419
9.9913693
9.2806575
8.5100105
7.7971094
7.0284461
6.3137599
5.5466894
4.8305971
4.0647509
3.3476118
2.5826396
1.8647992
1.1003625
0.38214941
39.27123
37.636911
35.975435
35.022722
33.86352
33.175308
32.215079
31.599123
30.701272
30.091547
29.218539
28.598542
27.741557
27.108733
26.265045
25.620106
24.788022
24.132314
23.310366
22.645219
21.832112
21.158715
20.353324
19.672721
18.87407
18.187167
17.394407
16.702
15.914383
15.217174
14.434038
13.732654
12.953404
12.248411
11.472507
10.764419
9.9913693
9.2806575
8.5100105
7.7971093
7.0284462
6.3137599
5.5466894
4.8305971
4.064751
3.3476117
2.5826396
1.8647991
1.1003626
0.38214939
39.274485
37.639417
35.976484
35.023115
33.863666
33.17534
32.215098
31.599131
30.701274
30.091552
29.218538
28.598543
27.741556
27.108733
26.265045
25.620106
24.788022
24.132314
23.310367
22.645219
21.832112
21.158715
20.353325
19.672721
18.87407
18.187167
17.394407
16.702
15.914383
15.217174
14.434038
13.732654
12.953404
12.248411
11.472507
10.764419
9.9913694
9.2806574
8.5100106
7.7971093
7.0284462
6.3137598
5.5466895
4.8305971
4.064751
3.3476117
2.5826397
1.8647991
1.1003627
0.38214937
39.278126
37.641686
35.977665
35.023589
33.863843
33.175384
32.215122
31.599142
30.701276
30.091557
29.218538
28.598544
27.741555
27.108732
26.265045
25.620106
24.788023
24.132314
23.310367
22.645219
21.832112
21.158715
20.353325
19.67272
18.87407
18.187167
17.394407
16.702
15.914383
15.217174
14.434038
13.732654
12.953404
12.248411
11.472507
10.764419
9.9913694
9.2806574
8.5100106
7.7971092
7.0284463
6.3137598
5.5466895
4.830597
4.064751
3.3476117
2.5826397
1.8647991
1.1003628
0.38214935
39.282649
37.644826
35.979016
35.024136
33.864051
33.175439
32.215151
31.599154
30.701278
30.091563
29.218537
28.598544
27.741555
27.108732
26.265045
25.620106
24.788023
24.132314
23.310367
22.645218
21.832113
21.158715
20.353325
19.67272
18.87407
18.187167
17.394407
16.701999
15.914383
15.217174
14.434038
13.732654
12.953404
12.248411
11.472507
10.764419
9.9913695
9.2806573
8.5100107
7.7971092
7.0284463
6.3137597
5.5466896
4.830597
4.0647511
3.3476116
2.5826398
1.8647991
1.1003629
0.38214934
39.287246
37.647756
35.980516
35.024769
33.864293
33.175508
32.215185
31.59917
30.701281
30.09157
29.218536
28.598544
27.741555
27.108732
26.265046
25.620105
24.788023
24.132314
23.310367
22.645218
21.832113
21.158715
20.353325
19.67272
18.87407
18.187167
17.394407
16.701999
15.914383
15.217174
14.434038
13.732654
12.953404
12.248411
11.472507
10.764419
9.9913696
9.2806572
8.5100107
7.7971091
7.0284464
6.3137597
5.5466896
4.8305969
4.0647511
3.3476116
2.5826398
1.864799
1.100363
0.38214932
39.293273
37.651544
35.982157
35.025482
33.864567
33.175589
32.215224
31.599187
30.701285
30.091578
29.218535
28.598544
27.741555
27.108732
26.265046
25.620105
24.788023
24.132314
23.310367
22.645218
21.832113
21.158715
20.353325
19.67272
18.87407
18.187167
17.394407
16.701999
15.914383
15.217174
14.434038
13.732654
12.953404
12.248411
11.472507
10.764419
9.9913696
9.2806572
8.5100108
7.797109
7.0284464
6.3137596
5.5466897
4.8305969
4.0647512
3.3476115
2.5826399
1.864799
1.1003631
0.3821493
39.298888
37.655209
35.984004
35.026297
33.864878
33.175684
32.215268
31.599207
30.701289
30.091585
29.218533
28.598544
27.741555
27.108732
26.265046
25.620105
24.788024
24.132314
23.310368
22.645218
21.832113
21.158715
20.353325
19.67272
18.874071
18.187166
17.394407
16.701999
15.914384
15.217174
14.434038
13.732654
12.953404
12.24841
11.472507
10.764418
9.9913697
9.2806571
8.5100109
7.797109
7.0284465
6.3137595
5.5466897
4.8305968
4.0647513
3.3476114
2.5826399
1.8647989
1.1003633
0.38214928
39.306195
37.659747
35.985981
35.027213
33.86522
33.175791
32.215316
31.59923
30.701293
30.091592
29.218532
28.598544
27.741555
27.108731
26.265047
25.620105
24.788024
24.132313
23.310368
22.645218
21.832113
21.158714
20.353325
19.67272
18.874071
18.187166
17.394407
16.701999
15.914384
15.217174
14.434039
13.732654
12.953404
12.24841
11.472507
10.764418
9.9913698
9.280657
8.510011
7.7971089