/*--------------------------------*- C++ -*----------------------------------*\
| =========                 |                                                 |
| \\      /  F ield         | OpenFOAM: The Open Source CFD Toolbox           |
|  \\    /   O peration     | Version:  2312                                  |
|   \\  /    A nd           | Website:  www.openfoam.com                      |
|    \\/     M anipulation  |                                                 |
\*---------------------------------------------------------------------------*/
FoamFile
{
    version     2.0;
    format      ascii;
    arch        "LSB;label=32;scalar=64";
    class       volScalarField;
    location    "9";
    object      T;
}
// * * * * * * * * * * * * * * * * * * * * * * * * * * * * * * * * * * * * * //

dimensions      [0 0 0 1 0 0 0];

internalField   nonuniform List<scalar> 
4000
(
332.13854
330.78713
330.51948
330.44409
330.35692
330.2978
330.24055
330.1901
330.14114
330.09605
330.05081
330.00846
329.96553
329.92475
329.88345
329.84368
329.80358
329.76451
329.72532
329.68675
329.64829
329.61008
329.57222
329.53428
329.4969
329.45917
329.42221
329.38462
329.34803
329.31056
329.27429
329.23689
329.20091
329.16356
329.12785
329.09052
329.05506
329.01773
328.98252
328.94516
328.9102
328.87277
328.83807
328.80054
328.76613
328.72843
328.6944
328.65636
328.62299
328.58365
334.43173
332.25245
331.53106
331.3745
331.18405
331.07708
330.97589
330.89497
330.81859
330.75374
330.68852
330.63187
330.57358
330.52166
330.46822
330.41935
330.3695
330.32271
330.27562
330.23033
330.18541
330.14121
330.09807
330.05468
330.01301
329.97023
329.92982
329.88749
329.84816
329.80617
329.76781
329.72604
329.68856
329.64694
329.61026
329.56871
329.53278
329.49123
329.45604
329.4144
329.37995
329.33812
329.30445
329.2623
329.22952
329.18684
329.15519
329.11151
329.08185
329.03445
335.84732
333.66129
332.53411
332.29838
332.00736
331.85312
331.70866
331.59745
331.49399
331.40942
331.32446
331.2535
331.18001
331.11694
331.05149
330.99348
330.93399
330.87947
330.82455
330.77251
330.72121
330.67099
330.62264
330.57377
330.52787
330.48001
330.43619
330.3891
330.34709
330.30055
330.26014
330.21399
330.17503
330.12913
330.0915
330.04572
330.00935
329.96356
329.92841
329.88247
329.84856
329.80231
329.76969
329.72292
329.69178
329.64412
329.61487
329.56554
329.53956
329.48451
336.78437
334.96548
333.514
333.20677
332.82122
332.6216
332.43552
332.29464
332.16491
332.06084
331.95665
331.87148
331.78317
331.70896
331.63179
331.56465
331.49574
331.43346
331.3709
331.31209
331.25456
331.19829
331.14485
331.09048
331.04045
330.9875
330.94036
330.88848
330.84386
330.79276
330.75036
330.69981
330.65943
330.60923
330.57071
330.52068
330.48391
330.43387
330.3988
330.34856
330.31521
330.26454
330.233
330.1816
330.15211
330.09949
330.07262
330.0177
329.99529
329.93319
337.43303
336.12239
334.45174
334.08767
333.61794
333.3767
333.15188
332.98267
332.8281
332.70508
332.58255
332.48343
332.38091
332.29571
332.20729
332.13107
332.05312
331.9831
331.9132
331.84762
331.7841
331.72179
331.66346
331.60358
331.54958
331.49152
331.44121
331.38453
331.33741
331.28174
331.23746
331.1825
331.14079
331.08628
331.04694
330.99265
330.95554
330.90125
330.86632
330.81177
330.77903
330.72394
330.69351
330.6375
330.60967
330.55212
330.52761
330.4672
330.44817
330.37973
337.89667
337.10602
335.32769
334.9271
334.38828
334.11136
333.85217
333.65689
333.4796
333.33863
333.19906
333.08653
332.97071
332.87483
332.77581
332.69071
332.60422
332.52659
332.44975
332.37748
332.30829
332.23998
332.17703
332.11168
332.05394
331.9908
331.9375
331.87603
331.82659
331.76635
331.72033
331.66096
331.61804
331.55923
331.51916
331.46064
331.42327
331.36474
331.33
331.27118
331.23909
331.17962
331.15032
331.08975
331.06358
331.00118
330.97896
330.91324
330.89731
330.82327
338.23521
337.90368
336.12401
335.71052
335.12227
334.81772
334.53008
334.31201
334.1149
333.9575
333.80267
333.67758
333.54969
333.44363
333.33492
333.24127
333.14693
333.0619
332.97866
332.89986
332.82544
332.75124
332.68403
332.61328
332.55209
332.48394
332.42789
332.36169
332.31012
332.24537
332.19777
332.13405
332.09005
332.02699
331.98631
331.92359
331.88606
331.82334
331.78887
331.72582
331.69443
331.63064
331.60249
331.53744
331.51291
331.44579
331.42578
331.35499
331.34182
331.26293
338.48699
338.51906
336.8279
336.42461
335.81008
335.48765
335.1789
334.94238
334.72911
334.55737
334.38954
334.2531
334.11468
333.99921
333.88195
333.78025
333.67892
333.58686
333.49788
333.41281
333.33369
333.2538
333.18276
333.10677
333.04249
332.96944
332.91095
332.84013
332.78668
332.7175
332.66854
332.60053
332.55563
332.48839
332.44725
332.3804
332.34282
332.27599
332.24187
332.17468
332.14404
332.07604
332.04905
331.97966
331.95674
331.88508
331.86714
331.79161
331.78079
331.69775
338.67787
338.96746
337.43213
337.05898
336.44304
336.11338
335.792
335.54226
335.31718
335.13379
334.95567
334.80946
334.66239
334.53853
334.41407
334.30504
334.19774
334.09915
334.00524
333.91427
333.8311
333.74581
333.67147
333.59046
333.52352
333.44577
333.38519
333.3099
333.25486
333.1814
333.13131
333.05916
333.01355
332.94225
332.9008
332.82995
332.79243
332.72162
332.68794
332.61674
332.5869
332.51483
332.48902
332.41546
332.39409
332.31814
332.30209
332.22222
332.21335
332.12679
338.826
339.27319
337.93595
337.60763
337.0143
336.68813
336.36323
336.1062
335.8742
335.68233
335.49705
335.343
335.18944
335.05849
334.92841
334.81294
334.70088
334.59642
334.49852
334.40215
334.31567
334.22537
334.14832
334.06262
333.99351
333.91132
333.84905
333.76952
333.71323
333.63569
333.58474
333.50862
333.46253
333.38735
333.34576
333.27107
333.23376
333.15913
333.12598
333.05095
333.02196
332.94602
332.92137
332.84388
332.82398
332.74405
332.72971
332.64594
332.63861
332.54911
338.94399
339.46466
338.34398
338.0694
337.51936
337.20659
336.88741
336.62936
336.39565
336.19889
336.00984
335.85022
335.69257
335.55605
335.42212
335.3013
335.18582
335.0763
334.97546
334.87433
334.78537
334.69056
334.61147
334.52149
334.45076
334.36448
334.30096
334.2175
334.16032
334.07896
334.02746
333.94762
333.90129
333.82245
333.78092
333.70262
333.66565
333.58742
333.55489
333.47626
333.44817
333.3686
333.34512
333.26397
333.24546
333.16189
333.14904
333.06187
333.05571
332.96377
339.04102
339.57169
338.66558
338.44767
337.95632
337.66542
337.36067
337.10781
336.87768
336.67982
336.4906
336.32789
336.16871
336.02835
335.89248
335.76758
335.65015
335.53653
335.43389
335.32873
335.23822
335.1395
335.05912
334.96535
334.8936
334.80365
334.73939
334.65235
334.59469
334.50984
334.45812
334.37485
334.32855
334.24633
334.20507
334.12342
334.08696
334.00539
333.97359
333.89163
333.86448
333.78159
333.75923
333.67479
333.65754
333.57076
333.55918
333.4691
333.4638
333.36986
339.1232
339.62144
338.91278
338.74931
338.32603
338.06351
337.78075
337.53885
337.31733
337.1222
336.93643
336.77322
336.61518
336.47284
336.33703
336.20944
336.0916
335.97496
335.87174
335.76342
335.67232
335.57039
335.48951
335.39254
335.32042
335.22728
335.16281
335.07263
335.01493
334.92698
334.87539
334.78905
334.74305
334.65779
334.61702
334.53234
334.49654
334.41196
334.38099
334.29603
334.26987
334.184
334.16275
334.07538
334.0593
333.96973
333.95923
333.86674
333.86205
333.76651
339.19488
339.63695
339.09892
338.98373
338.63191
338.40197
338.14712
337.9211
337.71274
337.52398
337.34512
337.18402
337.02973
336.88736
336.75364
336.62484
336.50817
336.38967
336.28714
336.17659
336.08592
335.98156
335.90101
335.80148
335.72967
335.63393
335.56979
335.47697
335.41969
335.32908
335.27799
335.18899
335.14361
335.05569
335.01564
334.9283
334.89333
334.8061
334.77607
334.68848
334.66334
334.57488
334.55471
334.46483
334.44982
334.35794
334.34832
334.25392
334.24966
334.15288
339.25866
339.63528
339.23704
339.16166
338.87954
338.68398
338.46095
338.25467
338.06323
337.8841
337.71527
337.55877
337.41073
337.27024
337.14058
337.0121
336.89818
336.77904
336.67847
336.56669
336.47749
336.37153
336.29214
336.19079
336.11998
336.02225
335.95903
335.86412
335.80771
335.71495
335.66475
335.57355
335.52908
335.43893
335.39983
335.31026
335.27628
335.18682
335.15782
335.06802
335.04395
334.95333
334.93421
334.84229
334.82823
334.73453
334.72563
334.62982
334.62584
334.52817
339.31643
339.62827
339.33902
339.29413
339.07602
338.91439
338.72504
338.54101
338.36935
338.20251
338.0464
337.89673
337.75719
337.62041
337.49666
337.36998
337.26033
337.14178
337.0444
336.93242
336.84571
336.73903
336.66166
336.55922
336.49011
336.39106
336.32933
336.23293
336.17788
336.08351
336.03457
335.94168
335.89842
335.80653
335.76861
335.67726
335.64445
335.55321
335.52535
335.43379
335.41081
335.3185
335.30041
335.20692
335.19374
335.0987
335.09041
334.99364
334.98987
334.89164
339.36913
339.62265
339.41492
339.39155
339.22922
339.09921
338.94343
338.78284
338.63276
338.48018
338.33887
338.19792
338.06881
337.93739
337.8212
337.69773
337.59373
337.47698
337.38396
337.27282
337.18956
337.08306
337.00851
336.90579
336.83905
336.73937
336.6797
336.58243
336.5292
336.4338
336.38651
336.29246
336.25072
336.15759
336.12109
336.02846
335.99697
335.90443
335.87781
335.78497
335.76314
335.66962
335.65253
335.55797
335.54559
335.44971
335.44193
335.34466
335.34104
335.24261
339.41758
339.62177
339.47276
339.46312
339.34711
339.24507
339.12113
338.98389
338.85612
338.71901
338.59394
338.46315
338.34598
338.22132
338.1141
337.99511
337.898
337.78417
337.69656
337.58725
337.50835
337.4029
337.33194
337.22971
337.166
337.06641
337.00932
336.91184
336.86088
336.76504
336.71976
336.62512
336.58519
336.49136
336.45649
336.36309
336.33309
336.23975
336.21448
336.12086
336.10021
336.00598
335.98988
335.89475
335.88313
335.7869
335.77955
335.68222
335.67874
335.58046
339.46216
339.62629
339.51858
339.51643
339.43721
339.35873
339.26367
339.14858
339.04289
338.92169
338.81359
338.69392
338.58976
338.47297
338.3758
338.26238
338.17317
338.06328
337.982
337.87546
337.80171
337.69816
337.63148
337.53052
337.47041
337.37161
337.31761
337.22057
337.17229
337.07662
337.0337
336.93904
336.90119
336.8072
336.77419
336.68054
336.65219
336.55857
336.53473
336.44084
336.42142
336.32699
336.31188
336.21668
336.20577
336.10966
336.10273
336.00574
336.0024
335.90462
339.50327
339.63564
339.5566
339.55736
339.50619
339.44662
339.37672
339.28174
339.19702
339.09146
339.00043
338.89237
338.8018
338.69364
338.60729
338.50031
338.41979
338.3147
338.24049
338.13754
338.06963
337.96876
337.90695
337.80798
337.752
337.65467
337.60421
337.50824
337.46302
337.36813
337.32787
337.23377
337.19825
337.10465
337.07369
336.98033
336.95376
336.86037
336.83807
336.74442
336.72627
336.63213
336.61804
336.52324
336.51304
336.41751
336.41098
336.31475
336.31155
336.21463
339.54115
339.64856
339.58963
339.59026
339.55966
339.51452
339.46572
339.38825
339.32279
339.23199
339.15751
339.06107
338.98421
338.88512
338.81
338.71008
338.63878
338.5392
338.47261
338.37396
338.31241
338.21492
338.15848
338.06217
338.01076
337.91553
337.869
337.77471
337.73287
337.63934
337.60202
337.50903
337.47607
337.38341
337.35466
337.26212
337.23745
337.14482
337.12413
337.03122
337.01439
336.92104
336.90796
336.81405
336.80456
336.71004
336.70392
336.60883
336.60581
336.5101
339.5761
339.66377
339.61937
339.61808
339.60206
339.56737
339.53566
339.47284
339.42446
339.34711
339.28817
339.20294
339.13949
339.04958
338.98578
338.89329
338.83148
338.7379
338.67929
338.58551
338.53072
338.43719
338.38649
338.29343
338.24693
338.1544
338.11209
338.02005
337.98187
337.89024
337.8561
337.76475
337.73454
337.64332
337.61694
337.52572
337.50307
337.41169
337.39269
337.301
337.28554
337.19344
337.18141
337.08881
337.08006
336.98696
336.98127
336.8877
336.88487
336.79074
339.60837
339.68019
339.64679
339.64276
339.63676
339.60919
339.59087
339.53983
339.50614
339.4406
339.39584
339.3211
339.2704
339.18946
339.13673
339.05182
338.9995
338.91226
338.86178
338.7733
338.72546
338.63638
338.59167
338.50236
338.46102
338.37169
338.33384
338.24456
338.21025
338.12103
338.09023
338.00102
337.9737
337.88443
337.86053
337.77111
337.75057
337.6609
337.64365
337.55365
337.53959
337.44919
337.43822
337.34738
337.33936
337.24808
337.24285
337.15115
337.14853
337.05632
339.63822
339.69704
339.67239
339.66542
339.66617
339.64311
339.63495
339.59302
339.57159
339.5161
339.4839
339.41867
339.37976
339.30737
339.26521
339.18777
339.14474
339.06397
339.02157
338.93865
338.89784
338.81356
338.77494
338.68979
338.65375
338.56805
338.53481
338.44874
338.41842
338.33206
338.30474
338.21812
338.1938
338.10692
338.0856
337.99842
337.98005
337.89253
337.87708
337.78918
337.77657
337.68826
337.6784
337.58968
337.58244
337.49333
337.48858
337.39909
337.39671
337.30674
339.66588
339.7138
339.69641
339.68668
339.69192
339.67146
339.6708
339.63563
339.62413
339.57691
339.55557
339.49871
339.47043
339.40595
339.37364
339.3034
339.26923
339.19489
339.16035
339.08313
339.04924
338.96999
338.93746
338.85677
338.82606
338.74434
338.71576
338.63326
338.60702
338.52391
338.50012
338.4165
338.39524
338.31115
338.29245
338.20791
338.19176
338.10679
338.09316
338.00776
337.9966
337.91078
337.90202
337.8158
337.80934
337.72275
337.71849
337.63154
337.6294
337.54199
339.69157
339.73015
339.71894
339.70683
339.71508
339.69588
339.70061
339.67025
339.66659
339.62597
339.61374
339.56407
339.54515
339.48781
339.46445
339.40099
339.37508
339.30699
339.27993
339.2084
339.1812
339.10711
339.08052
339.0045
338.97904
338.90156
338.87762
338.799
338.77682
338.69728
338.67704
338.59675
338.57857
338.49762
338.48155
338.40001
338.38608
338.30401
338.29222
338.20965
338.19997
338.11695
338.10933
338.0259
338.02025
337.93647
337.93273
337.84859
337.84671
337.76215
339.71548
339.74596
339.74003
339.72598
339.73629
339.7175
339.72602
339.69892
339.70128
339.66577
339.66101
339.61734
339.60645
339.55542
339.54002
339.4828
339.46443
339.4023
339.3822
339.31624
339.29538
339.22645
339.20556
339.13431
339.11395
339.04088
339.02146
338.94693
338.92874
338.85304
338.8363
338.75961
338.74447
338.66695
338.65349
338.57525
338.56353
338.48465
338.47469
338.39526
338.38705
338.30712
338.30063
338.22028
338.21545
338.13473
338.13153
338.05046
338.04885
337.96738
339.73777
339.76115
339.75974
339.74414
339.75591
339.73704
339.74817
339.72318
339.73004
339.69836
339.69956
339.6608
339.65664
339.61107
339.60259
339.551
339.53937
339.4828
339.46906
339.40844
339.39347
339.32961
339.31409
339.24762
339.23211
339.16353
339.14845
339.07816
339.06384
338.99214
338.9788
338.90593
338.89375
338.81989
338.80899
338.73428
338.72474
338.6493
338.64114
338.56508
338.55832
338.48173
338.47636
338.39932
338.39531
338.31788
338.31522
338.23744
338.2361
338.15794
339.75858
339.77571
339.7781
339.76131
339.77416
339.75496
339.76786
339.74415
339.75429
339.7254
339.73124
339.6964
339.69774
339.65681
339.65419
339.60761
339.60187
339.5504
339.54235
339.48678
339.47717
339.41821
339.40766
339.34589
339.33492
339.27084
339.25987
339.19388
339.18323
339.11564
339.10556
339.03665
339.02733
338.95729
338.94886
338.87786
338.87042
338.79861
338.79221
338.71972
338.71438
338.64131
338.63704
338.5635
338.5603
338.48635
338.48422
338.40992
338.40884
338.33418
339.77805
339.78964
339.79518
339.77747
339.79112
339.77151
339.78559
339.76263
339.77507
339.74818
339.75752
339.72576
339.73148
339.69443
339.69668
339.65447
339.65376
339.60691
339.60385
339.55298
339.54815
339.49385
339.48781
339.43061
339.42381
339.36417
339.357
339.29531
339.28809
339.22467
339.21766
339.15278
339.14616
339.08006
339.07398
339.00682
339.00139
338.93335
338.92862
338.85985
338.85587
338.78648
338.78328
338.71338
338.71097
338.64064
338.63903
338.56835
338.56753
338.49651
339.79626
339.80295
339.81103
339.79261
339.80686
339.78684
339.80169
339.77913
339.79315
339.76767
339.77957
339.7502
339.75932
339.72546
339.73164
339.69321
339.6967
339.65398
339.65519
339.60863
339.608
339.55808
339.55604
339.50322
339.50017
339.44485
339.44116
339.3837
339.37965
339.32038
339.3162
339.25539
339.25129
339.18917
339.18529
339.12205
339.11851
339.05432
339.05119
338.98621
338.98354
338.91792
338.91574
338.84958
338.84793
338.78133
338.78022
338.71325
338.71269
338.64541
339.8133
339.81563
339.82569
339.80673
339.82139
339.80102
339.81636
339.79402
339.80906
339.78457
339.79828
339.77076
339.78242
339.75118
339.76045
339.72524
339.73217
339.6931
339.69788
339.65525
339.6582
339.61235
339.61381
339.56512
339.5654
339.51423
339.51364
339.46031
339.45911
339.40392
339.40234
339.34555
339.34377
339.28562
339.28378
339.22447
339.22268
339.16239
339.16074
339.09962
339.09816
339.03636
339.03515
338.97278
338.97185
338.90903
338.9084
338.84522
338.8449
338.78142
339.82923
339.82767
339.83919
339.8198
339.83472
339.81409
339.82969
339.8075
339.82316
339.79941
339.81432
339.78824
339.80173
339.77263
339.78426
339.7518
339.76143
339.72556
339.73327
339.69416
339.70012
339.65801
339.66245
339.61763
339.62079
339.57356
339.5757
339.52634
339.52767
339.47645
339.47719
339.42436
339.42466
339.37044
339.37045
339.31504
339.31486
339.25844
339.25815
339.20088
339.20055
339.14258
339.14226
339.08371
339.08345
339.02444
339.02425
338.96488
338.96478
338.90513
339.84409
339.83902
339.85155
339.83182
339.84684
339.82604
339.84176
339.81972
339.8357
339.81252
339.82818
339.80325
339.81799
339.79066
339.804
339.77387
339.78558
339.75251
339.76253
339.72658
339.73498
339.69629
339.7032
339.66198
339.66758
339.62406
339.62854
339.58296
339.5865
339.53909
339.54187
339.49287
339.49502
339.44464
339.44629
339.39471
339.39597
339.34337
339.34431
339.29086
339.29155
339.23738
339.23787
339.18312
339.18346
339.12824
339.12846
339.07288
339.07299
339.01715
339.85787
339.8496
339.86273
339.84275
339.85775
339.83689
339.85259
339.83075
339.84683
339.82415
339.84022
339.81623
339.83176
339.80591
339.82044
339.7923
339.80552
339.77491
339.78669
339.75355
339.76388
339.72828
339.7372
339.69928
339.7069
339.66684
339.67328
339.63126
339.63668
339.59291
339.59743
339.55211
339.55587
339.50919
339.51228
339.46443
339.46696
339.41809
339.42012
339.3704
339.372
339.32156
339.32279
339.27176
339.27266
339.22117
339.22175
339.16992
339.17021
339.11813
339.87051
339.85932
339.8727
339.85256
339.86744
339.84662
339.86222
339.84064
339.85667
339.83448
339.85068
339.82753
339.84349
339.8189
339.83418
339.80776
339.82203
339.79355
339.80662
339.77598
339.78776
339.75496
339.76544
339.73055
339.73978
339.70292
339.71096
339.67228
339.67924
339.63891
339.64489
339.60308
339.60819
339.56507
339.56939
339.52512
339.52874
339.48348
339.48646
339.44036
339.44275
339.39594
339.39781
339.35042
339.3518
339.30396
339.30487
339.25669
339.25715
339.20874
339.88182
339.86802
339.8814
339.86121
339.87589
339.85524
339.87065
339.84942
339.86529
339.84361
339.85977
339.83738
339.85349
339.83002
339.84569
339.82078
339.8357
339.8091
339.82304
339.79462
339.80745
339.77716
339.78881
339.75667
339.76713
339.73322
339.74252
339.70694
339.71514
339.67802
339.68519
339.64668
339.6529
339.61316
339.6185
339.57766
339.58219
339.54039
339.54416
339.50155
339.50462
339.46131
339.46372
339.41986
339.42164
339.37734
339.37853
339.3339
339.33449
339.28966
339.8915
339.87553
339.88876
339.86866
339.8831
339.86273
339.87792
339.85712
339.87276
339.85163
339.8676
339.84596
339.86201
339.83956
339.85536
339.83178
339.84703
339.8221
339.83657
339.81013
339.82364
339.79561
339.80806
339.77843
339.78977
339.75856
339.7688
339.73608
339.74522
339.7111
339.7192
339.68378
339.69089
339.65431
339.66048
339.62287
339.62814
339.58963
339.59406
339.55477
339.55839
339.51844
339.52131
339.48082
339.48295
339.44204
339.44345
339.40224
339.40295
339.36154
339.89918
339.88169
339.89474
339.87491
339.8891
339.86914
339.88405
339.86379
339.87914
339.85862
339.8743
339.85341
339.86924
339.84774
339.86346
339.8411
339.85642
339.83298
339.84768
339.82301
339.8369
339.8109
339.82386
339.79648
339.80842
339.77966
339.79054
339.76045
339.77027
339.73891
339.74769
339.71516
339.72292
339.68932
339.69611
339.66154
339.66739
339.63198
339.63692
339.60077
339.60484
339.56807
339.57129
339.53402
339.53642
339.49874
339.50034
339.46239
339.46319
339.42505
339.90458
339.88641
339.89934
339.87996
339.89392
339.87448
339.88911
339.86946
339.88447
339.86462
339.87995
339.85982
339.87533
339.85475
339.87022
339.84898
339.86417
339.84209
339.85678
339.83371
339.84772
339.82355
339.83674
339.8114
339.82366
339.79713
339.80841
339.78071
339.79097
339.76215
339.77139
339.74151
339.74973
339.71889
339.72612
339.69439
339.70066
339.66815
339.67347
339.64027
339.64467
339.6109
339.61439
339.58014
339.58276
339.54814
339.54988
339.515
339.51587
339.48083
339.90767
339.8897
339.90263
339.88388
339.89763
339.87883
339.89315
339.87419
339.88884
339.86971
339.88463
339.86529
339.88039
339.86071
339.87582
339.85564
339.87054
339.8497
339.8642
339.84258
339.85649
339.83397
339.84716
339.82366
339.83602
339.81151
339.82295
339.79744
339.80792
339.78141
339.79091
339.76347
339.77197
339.74366
339.75117
339.72207
339.72861
339.69879
339.70436
339.67393
339.67855
339.64758
339.65126
339.61985
339.62261
339.59086
339.5927
339.56071
339.56164
339.52951
339.90878
339.8917
339.90472
339.88677
339.90031
339.88224
339.89625
339.87804
339.8923
339.87394
339.88843
339.86989
339.88454
339.86574
339.88039
339.86122
339.87571
339.85603
339.87018
339.84987
339.86352
339.84249
339.8555
339.83366
339.84592
339.82324
339.83465
339.81111
339.82162
339.79722
339.80679
339.78158
339.79019
339.76421
339.77185
339.74517
339.75184
339.72452
339.73022
339.70234
339.70708
339.67872
339.68251
339.65374
339.65659
339.62752
339.62942
339.60012
339.60108
339.57166
339.90846
339.89267
339.9058
339.88874
339.90209
339.88482
339.8985
339.88109
339.89494
339.87739
339.89141
339.87371
339.88784
339.86993
339.88406
339.86585
339.87983
339.86123
339.87492
339.85581
339.86907
339.84938
339.86206
339.84172
339.85372
339.83268
339.8439
339.82213
339.83251
339.81003
339.81952
339.79632
339.8049
339.78104
339.78868
339.7642
339.77089
339.74586
339.75159
339.72606
339.73084
339.70487
339.7087
339.68238
339.68526
339.65866
339.66058
339.63379
339.63476
339.60785
339.90733
339.89289
339.90606
339.88994
339.90308
339.88667
339.9
339.88341
339.89684
339.88012
339.89365
339.87679
339.89038
339.87334
339.8869
339.86962
339.88303
339.86543
339.87857
339.86058
339.87332
339.85486
339.86708
339.84809
339.85969
339.84013
339.85102
339.83086
339.84097
339.8202
339.82948
339.80811
339.81652
339.79459
339.8021
339.77964
339.78624
339.76329
339.76897
339.74558
339.75032
339.72655
339.73036
339.70627
339.70914
339.68481
339.68673
339.66223
339.6632
339.6386
339.90583
339.89262
339.90571
339.89053
339.90342
339.88788
339.90084
339.8851
339.89809
339.88221
339.89523
339.87921
339.89224
339.87605
339.889
339.87261
339.88539
339.86873
339.88125
339.86428
339.87642
339.85907
339.87074
339.85297
339.86407
339.84583
339.85628
339.83756
339.84729
339.82806
339.83701
339.81729
339.82543
339.80523
339.81253
339.79188
339.7983
339.77724
339.78278
339.76134
339.76597
339.74421
339.74793
339.72589
339.7287
339.70645
339.70833
339.68594
339.68688
339.6644
339.90425
339.89206
339.90493
339.89065
339.90324
339.88856
339.90112
339.88624
339.89876
339.88372
339.89622
339.88103
339.89346
339.87811
339.89042
339.87487
339.88698
339.87121
339.88305
339.86701
339.87849
339.86215
339.87319
339.85651
339.86702
339.84997
339.85989
339.84245
339.85171
339.83386
339.8424
339.82415
339.83193
339.81329
339.82028
339.80126
339.80744
339.78807
339.79341
339.77373
339.7782
339.75824
339.76184
339.74166
339.74437
339.72401
339.72583
339.70534
339.70625
339.68569
339.90268
339.89136
339.90384
339.89041
339.90264
339.88882
339.90095
339.8869
339.89894
339.88473
339.89667
339.88229
339.89411
339.87955
339.89119
339.87644
339.88785
339.87289
339.88401
339.86883
339.8796
339.86417
339.87452
339.85882
339.86868
339.85269
339.86201
339.84571
339.85442
339.83781
339.84586
339.82892
339.83627
339.81902
339.82564
339.80809
339.81395
339.79611
339.80118
339.78309
339.78735
339.76902
339.77246
339.75394
339.75654
339.73787
339.73961
339.72084
339.72172
339.70289
339.90113
339.89058
339.90257
339.88992
339.90173
339.88873
339.9004
339.88716
339.8987
339.88528
339.89665
339.88304
339.89422
339.88042
339.89136
339.87736
339.88802
339.87382
339.88418
339.86978
339.87979
339.86518
339.87479
339.85997
339.86914
339.85409
339.86275
339.84747
339.85558
339.84006
339.84757
339.8318
339.83867
339.82265
339.82885
339.8126
339.8181
339.80162
339.80639
339.78971
339.79372
339.77686
339.78009
339.76308
339.76553
339.74839
339.75003
339.73281
339.73364
339.71637
339.89958
339.88976
339.90116
339.88924
339.90058
339.88836
339.89955
339.88709
339.89808
339.88543
339.89619
339.88332
339.89382
339.88072
339.89093
339.87761
339.88751
339.87399
339.88356
339.86986
339.87909
339.86522
339.87406
339.86002
339.86844
339.85424
339.86221
339.84783
339.85529
339.84074
339.84766
339.83293
339.83927
339.82436
339.83009
339.81501
339.8201
339.80484
339.80926
339.79385
339.79758
339.78203
339.78503
339.76936
339.77164
339.75588
339.75741
339.74157
339.74234
339.72646
339.89803
339.88893
339.89966
339.88843
339.89927
339.88779
339.89845
339.88673
339.89716
339.8852
339.89533
339.88312
339.89292
339.88046
339.8899
339.8772
339.8863
339.8734
339.88215
339.86908
339.87749
339.86427
339.87232
339.85898
339.86664
339.85318
339.86042
339.84684
339.85364
339.83994
339.84625
339.83243
339.83822
339.82428
339.82953
339.81547
339.82013
339.80596
339.81001
339.79572
339.79915
339.78476
339.78753
339.77305
339.77515
339.7606
339.76201
339.74741
339.74812
339.73348
339.89644
339.88809
339.8981
339.88752
339.89782
339.88705
339.89716
339.88612
339.89594
339.88463
339.89407
339.88247
339.89151
339.87961
339.88825
339.8761
339.88437
339.87201
339.87992
339.8674
339.87498
339.86234
339.86957
339.85684
339.86372
339.85092
339.85743
339.84456
339.85066
339.83773
339.84341
339.8304
339.83562
339.82254
339.82728
339.81413
339.81835
339.80513
339.8088
339.79551
339.79862
339.78526
339.78778
339.77436
339.77627
339.7628
339.76409
339.75058
339.75123
339.73769
339.89482
339.88724
339.89649
339.88654
339.89627
339.88617
339.89569
339.88528
339.89444
339.8837
339.89241
339.88132
339.88956
339.87815
339.88595
339.87426
339.88167
339.86977
339.87682
339.86479
339.87151
339.85938
339.86579
339.8536
339.8597
339.84747
339.85324
339.84099
339.84641
339.83414
339.83918
339.82689
339.83154
339.81922
339.82344
339.8111
339.81487
339.8025
339.80578
339.79338
339.79616
339.78372
339.78597
339.7735
339.77521
339.76271
339.76386
339.75132
339.75191
339.73935
339.89314
339.88638
339.89482
339.8855
339.89465
339.88516
339.89407
339.88421
339.89266
339.8824
339.8903
339.87964
339.88702
339.87601
339.88292
339.87162
339.87813
339.86664
339.8728
339.86118
339.86705
339.85536
339.86094
339.84922
339.85453
339.84282
339.84784
339.83615
339.84088
339.8292
339.83361
339.82196
339.82603
339.81439
339.8181
339.80647
339.80979
339.79817
339.80107
339.78945
339.7919
339.78027
339.78227
339.77063
339.77215
339.76049
339.76151
339.74984
339.75036
339.73867
339.89141
339.8855
339.89311
339.88441
339.89296
339.88403
339.89228
339.88287
339.89055
339.88066
339.8877
339.87736
339.88382
339.87311
339.8791
339.8681
339.8737
339.86252
339.86779
339.85652
339.86152
339.85021
339.85497
339.84367
339.8482
339.83694
339.84123
339.83003
339.83408
339.82293
339.82672
339.81563
339.81914
339.80811
339.81131
339.80032
339.80319
339.79224
339.79476
339.78383
339.78597
339.77506
339.7768
339.7659
339.76723
339.75633
339.75722
339.74631
339.74676
339.73584
339.8896
339.8846
339.89135
339.88327
339.89119
339.88277
339.89029
339.88123
339.88804
339.8784
339.8845
339.87438
339.87986
339.86936
339.87438
339.86361
339.86826
339.85734
339.86171
339.85072
339.85487
339.84388
339.84783
339.8369
339.84066
339.8298
339.83339
339.82262
339.82601
339.81534
339.81853
339.80795
339.8109
339.80041
339.80312
339.79271
339.79515
339.7848
339.78694
339.77664
339.77846
339.7682
339.76969
339.75945
339.76059
339.75036
339.75113
339.7409
339.74129
339.73105
339.88771
339.88368
339.88953
339.88207
339.88933
339.88133
339.88803
339.87918
339.88504
339.87553
339.88059
339.87057
339.87502
339.86464
339.86865
339.85804
339.86172
339.851
339.85446
339.84372
339.84701
339.83632
339.83947
339.82886
339.83188
339.82138
339.82428
339.81391
339.81667
339.80642
339.80903
339.79891
339.80135
339.79134
339.79358
339.78368
339.78571
339.7759
339.77769
339.76795
339.76947
339.75979
339.76104
339.75139
339.75235
339.74273
339.74337
339.73376
339.73408
339.72445
339.88571
339.88275
339.88765
339.88082
339.88734
339.87964
339.88542
339.87663
339.88142
339.87188
339.87583
339.86581
339.86916
339.85882
339.86178
339.85126
339.85398
339.84341
339.84597
339.83543
339.83789
339.82744
339.82982
339.8195
339.82182
339.81165
339.81389
339.80388
339.80604
339.79619
339.79824
339.78855
339.79048
339.78093
339.78273
339.7733
339.77493
339.76561
339.76706
339.75783
339.75908
339.74992
339.75094
339.74183
339.74262
339.73354
339.73407
339.725
339.72527
339.71619
339.8836
339.88182
339.8857
339.8795
339.88516
339.87761
339.88231
339.8734
339.877
339.8673
339.87005
339.85992
339.86213
339.85175
339.85366
339.84317
339.84493
339.83446
339.83615
339.82578
339.82743
339.81721
339.81885
339.8088
339.81043
339.80057
339.80219
339.79253
339.79412
339.78464
339.78618
339.77687
339.77835
339.76921
339.77059
339.7616
339.76287
339.754
339.75514
339.74638
339.74736
339.73868
339.73949
339.73087
339.73149
339.72291
339.72334
339.71477
339.71498
339.7064
339.88135
339.88094
339.88367
339.87806
339.88267
339.87509
339.87853
339.86931
339.87158
339.86159
339.86306
339.85272
339.85376
339.84328
339.84413
339.83365
339.83445
339.82407
339.8249
339.81469
339.81557
339.80556
339.8065
339.79671
339.79771
339.78814
339.78918
339.77984
339.78091
339.77178
339.77284
339.76391
339.76496
339.75621
339.75721
339.74863
339.74956
339.74112
339.74196
339.73364
339.73437
339.72614