/*--------------------------------*- C++ -*----------------------------------*\
| =========                 |                                                 |
| \\      /  F ield         | OpenFOAM: The Open Source CFD Toolbox           |
|  \\    /   O peration     | Version:  2312                                  |
|   \\  /    A nd           | Website:  www.openfoam.com                      |
|    \\/     M anipulation  |                                                 |
\*---------------------------------------------------------------------------*/
FoamFile
{
    version     2.0;
    format      ascii;
    arch        "LSB;label=32;scalar=64";
    class       volScalarField;
    location    "7";
    object      T;
}
// * * * * * * * * * * * * * * * * * * * * * * * * * * * * * * * * * * * * * //

dimensions      [0 0 0 1 0 0 0];

internalField   nonuniform List<scalar> 
4000
(
332.13822
330.78706
330.51953
330.44396
330.35692
330.29772
330.24052
330.19005
330.14113
330.09602
330.05082
330.00845
329.96555
329.92476
329.88347
329.84369
329.8036
329.76451
329.72534
329.68675
329.6483
329.61008
329.57222
329.53427
329.4969
329.45916
329.42221
329.38461
329.34803
329.31055
329.27429
329.23688
329.20091
329.16355
329.12785
329.09052
329.05506
329.01773
328.98252
328.94516
328.9102
328.87277
328.83807
328.80054
328.76613
328.72843
328.6944
328.65636
328.62299
328.58366
334.4311
332.25229
331.53124
331.3741
331.18406
331.07686
330.9758
330.89483
330.81857
330.75366
330.68855
330.63185
330.57364
330.52167
330.46829
330.41936
330.36955
330.32272
330.27566
330.23032
330.18543
330.14119
330.09808
330.05465
330.01301
329.9702
329.92981
329.88746
329.84816
329.80614
329.76781
329.72603
329.68856
329.64693
329.61026
329.5687
329.53279
329.49123
329.45604
329.41439
329.37995
329.33812
329.30446
329.2623
329.22953
329.18684
329.1552
329.11151
329.08186
329.03445
335.84626
333.66086
332.53446
332.29773
332.00738
331.85276
331.70852
331.59722
331.49397
331.40928
331.3245
331.25346
331.18011
331.11695
331.0516
330.9935
330.93409
330.87948
330.82462
330.7725
330.72125
330.67097
330.62265
330.57373
330.52787
330.47997
330.43619
330.38906
330.34708
330.30051
330.26013
330.21396
330.17503
330.12911
330.0915
330.04571
330.00936
329.96355
329.92842
329.88247
329.84857
329.80231
329.76971
329.72293
329.69179
329.64413
329.61488
329.56555
329.53957
329.48451
336.7834
334.96515
333.51455
333.20589
332.82129
332.62112
332.43531
332.29431
332.16487
332.06065
331.9567
331.87142
331.78329
331.70897
331.63194
331.56468
331.49587
331.43347
331.37099
331.31208
331.25461
331.19826
331.14487
331.09043
331.04045
330.98744
330.94035
330.88842
330.84384
330.79271
330.75035
330.69977
330.65943
330.6092
330.57071
330.52066
330.48392
330.43386
330.39881
330.34856
330.31523
330.26454
330.23302
330.18161
330.15213
330.09949
330.07263
330.01771
329.99531
329.9332
337.43186
336.12175
334.45253
334.08661
333.61806
333.37613
333.15162
332.98226
332.82804
332.70483
332.5826
332.48334
332.38106
332.29572
332.20747
332.13111
332.05328
331.98313
331.91332
331.84762
331.78417
331.72175
331.66349
331.60352
331.54958
331.49145
331.44119
331.38445
331.3374
331.28167
331.23745
331.18245
331.14078
331.08624
331.04694
330.99263
330.95555
330.90124
330.86633
330.81177
330.77905
330.72395
330.69353
330.6375
330.60969
330.55213
330.52763
330.46721
330.44819
330.37974
337.89558
337.1054
335.32871
334.9259
334.38849
334.11074
333.85188
333.65642
333.47952
333.33832
333.1991
333.08641
332.97088
332.87483
332.77603
332.69076
332.60442
332.52663
332.4499
332.37749
332.30839
332.23995
332.17708
332.11161
332.05394
331.99072
331.93748
331.87595
331.82657
331.76627
331.72031
331.6609
331.61803
331.55919
331.51916
331.46061
331.42328
331.36472
331.33002
331.27117
331.23911
331.17962
331.15034
331.08975
331.0636
331.00119
330.97899
330.91325
330.89734
330.82329
338.23406
337.90295
336.12529
335.70926
335.12258
334.81707
334.52976
334.31149
334.1148
333.95714
333.80269
333.67742
333.54986
333.44362
333.33516
333.24132
333.14716
333.06195
332.97884
332.89987
332.82556
332.75121
332.68409
332.61321
332.5521
332.48385
332.42787
332.3616
332.3101
332.24528
332.19775
332.13397
332.09003
332.02693
331.98631
331.92355
331.88606
331.82332
331.78889
331.72581
331.69445
331.63064
331.60251
331.53745
331.51294
331.44581
331.42581
331.35501
331.34185
331.26295
338.48589
338.51826
336.82935
336.42333
335.81051
335.48702
335.17857
334.94182
334.72899
334.55696
334.38954
334.2529
334.11485
333.9992
333.8822
333.78031
333.67917
333.58692
333.49809
333.41283
333.33383
333.25378
333.18284
333.1067
333.04251
332.96935
332.91094
332.84002
332.78665
332.7174
332.66851
332.60045
332.55561
332.48833
332.44724
332.38035
332.34282
332.27596
332.24189
332.17467
332.14406
332.07604
332.04908
331.97966
331.95677
331.8851
331.86717
331.79163
331.78082
331.69777
338.67688
338.96656
337.43367
337.05776
336.4436
336.1128
335.79168
335.54168
335.31705
335.13334
334.95564
334.80922
334.66254
334.5385
334.41434
334.3051
334.19802
334.09923
334.00548
333.91432
333.83127
333.74581
333.67156
333.59041
333.52356
333.44568
333.38518
333.30979
333.25483
333.18129
333.13128
333.05906
333.01352
332.94218
332.90079
332.82989
332.79244
332.72158
332.68795
332.61672
332.58692
332.51483
332.48905
332.41546
332.39412
332.31815
332.30213
332.22225
332.21338
332.12682
338.82498
339.27206
337.93747
337.60651
337.01499
336.68763
336.36295
336.10563
335.87406
335.68186
335.49699
335.34273
335.18957
335.05844
334.92868
334.81301
334.70117
334.59651
334.49878
334.40221
334.31586
334.22538
334.14843
334.06258
333.99356
333.91124
333.84904
333.76941
333.7132
333.63557
333.5847
333.50852
333.4625
333.38726
333.34575
333.27101
333.23376
333.15909
333.12599
333.05092
333.02198
332.94601
332.9214
332.84389
332.82402
332.74407
332.72974
332.64597
332.63864
332.54914
338.94316
339.46344
338.3454
338.06844
337.52015
337.20619
336.88718
336.62881
336.39552
336.1984
336.00976
335.84992
335.69268
335.55598
335.42238
335.30137
335.18613
335.07641
334.97574
334.87441
334.78558
334.69059
334.61161
334.52146
334.45082
334.3644
334.30097
334.21739
334.16029
334.07884
334.02742
333.94751
333.90125
333.82235
333.7809
333.70254
333.66565
333.58737
333.5549
333.47623
333.44819
333.36859
333.34514
333.26398
333.24549
333.16191
333.14908
333.06189
333.05574
332.9638
339.04018
339.57023
338.66685
338.44687
337.9572
337.66514
337.36052
337.10732
336.87756
336.67933
336.4905
336.32755
336.16879
336.02826
335.89273
335.76765
335.65046
335.53664
335.43419
335.32883
335.23845
335.13955
335.05927
334.96534
334.89368
334.80358
334.7394
334.65224
334.59467
334.50972
334.45808
334.37473
334.32851
334.24623
334.20504
334.12334
334.08694
334.00533
333.97359
333.89159
333.8645
333.78158
333.75926
333.67479
333.65758
333.57077
333.55922
333.46912
333.46384
333.36989
339.12255
339.62001
338.91391
338.74869
338.32696
338.06335
337.78068
337.53842
337.31724
337.12173
336.93632
336.77286
336.61522
336.47272
336.33727
336.2095
336.09192
335.97508
335.87205
335.76353
335.67257
335.57046
335.48968
335.39254
335.32051
335.22723
335.16284
335.07253
335.01491
334.92686
334.87535
334.78893
334.74301
334.65768
334.61699
334.53225
334.49652
334.4119
334.38099
334.29599
334.26988
334.18398
334.16277
334.07538
334.05933
333.96975
333.95927
333.86676
333.86209
333.76654
339.19419
339.6354
339.09992
338.98327
338.63286
338.40192
338.14714
337.92076
337.7127
337.52355
337.345
337.18364
337.02975
336.88721
336.75385
336.62489
336.50848
336.3898
336.28746
336.17672
336.08619
335.98165
335.9012
335.80151
335.72979
335.6339
335.56984
335.47689
335.41968
335.32897
335.27795
335.18887
335.14356
335.05557
335.01559
334.92821
334.8933
334.80603
334.77606
334.68843
334.66334
334.57486
334.55473
334.46483
334.44985
334.35795
334.34835
334.25395
334.2497
334.15291
339.25813
339.63388
339.2379
339.16135
338.88048
338.68404
338.46107
338.25442
338.06326
337.88372
337.71517
337.55839
337.41072
337.27008
337.14077
337.01213
336.89848
336.77917
336.67879
336.56683
336.47777
336.37164
336.29236
336.19084
336.12012
336.02224
335.95909
335.86405
335.80772
335.71485
335.66471
335.57343
335.52903
335.43882
335.39978
335.31016
335.27625
335.18675
335.15781
335.06797
335.04394
334.9533
334.93422
334.84228
334.82826
334.73454
334.72567
334.62984
334.62588
334.52821
339.31588
339.6269
339.33976
339.29393
339.07693
338.91453
338.72524
338.54086
338.36945
338.2022
338.04631
337.89635
337.75716
337.62023
337.49682
337.37
337.26061
337.14191
337.04472
336.93258
336.846
336.73916
336.66189
336.5593
336.49027
336.39107
336.32941
336.23288
336.17789
336.08342
336.03454
335.94157
335.89837
335.80642
335.76856
335.67716
335.64441
335.55313
335.52532
335.43374
335.4108
335.31847
335.30041
335.20691
335.19376
335.09871
335.09044
334.99366
334.9899
334.89168
339.36873
339.6215
339.41553
339.39144
339.23007
339.09941
338.94371
338.7828
338.63293
338.47995
338.33882
338.19757
338.06876
337.93719
337.82133
337.69774
337.594
337.47711
337.38427
337.27298
337.18986
337.0832
337.00876
336.90588
336.83922
336.73941
336.6798
336.58241
336.52923
336.43372
336.38649
336.29236
336.25068
336.15748
336.12104
336.02835
335.99692
335.90435
335.87778
335.78491
335.76312
335.66958
335.65253
335.55796
335.5456
335.44972
335.44195
335.34468
335.34107
335.24265
339.4172
339.6207
339.47328
339.46308
339.34789
339.24532
339.12149
338.98395
338.85637
338.71887
338.59394
338.46283
338.34592
338.22111
338.1142
337.99511
337.89825
337.78429
337.69686
337.58742
337.50865
337.40306
337.3322
337.22983
337.16619
337.06646
337.00944
336.91184
336.86092
336.76498
336.71975
336.62503
336.58515
336.49125
336.45644
336.36299
336.33304
336.23967
336.21444
336.1208
336.10019
336.00594
335.98988
335.89474
335.88314
335.7869
335.77958
335.68224
335.67877
335.58049
339.46187
339.62538
339.519
339.51644
339.43791
339.35901
339.26408
339.14874
339.04321
338.92164
338.81364
338.69365
338.58971
338.47276
338.37588
338.26237
338.1734
338.0634
337.9823
337.87562
337.80201
337.69833
337.63175
337.53065
337.47061
337.37168
337.31775
337.22059
337.17235
337.07658
337.0337
336.93896
336.90116
336.8071
336.77414
336.68044
336.65213
336.55848
336.53469
336.44077
336.42139
336.32694
336.31187
336.21665
336.20578
336.10966
336.10275
336.00576
336.00243
335.90466
339.50299
339.63481
339.55696
339.55742
339.50682
339.4469
339.37717
339.28197
339.19743
339.09151
339.00053
338.89214
338.80175
338.69343
338.60735
338.50028
338.42
338.31481
338.24077
338.1377
338.06992
337.96893
337.90722
337.80812
337.75222
337.65477
337.60436
337.50828
337.4631
337.36811
337.32789
337.2337
337.19822
337.10456
337.07364
336.98023
336.9537
336.86028
336.83802
336.74435
336.72624
336.63208
336.61802
336.52321
336.51304
336.4175
336.41099
336.31476
336.31158
336.21467
339.54092
339.64784
339.58994
339.59035
339.56021
339.5148
339.46619
339.38855
339.32325
339.23213
339.15767
339.0609
338.98417
338.88493
338.81005
338.71005
338.63897
338.5393
338.47288
338.37412
338.3127
338.21509
338.15875
338.06232
338.01098
337.91565
337.86917
337.77477
337.73297
337.63934
337.60206
337.50898
337.47606
337.38333
337.35462
337.26202
337.2374
337.14473
337.12408
337.03115
337.01436
336.92099
336.90794
336.81401
336.80455
336.71003
336.70393
336.60884
336.60583
336.51013
339.57587
339.66314
339.61965
339.6182
339.60254
339.56763
339.53614
339.47319
339.42498
339.34732
339.28839
339.20284
339.13948
339.0494
338.98581
338.89325
338.83164
338.738
338.67955
338.58567
338.53099
338.43736
338.38676
338.29359
338.24716
338.15453
338.11227
338.02013
337.98199
337.89027
337.85615
337.76472
337.73453
337.64326
337.61691
337.52563
337.50302
337.4116
337.39264
337.30093
337.2855
337.19338
337.18138
337.08878
337.08004
336.98694
336.98127
336.8877
336.88488
336.79076
339.60816
339.67965
339.64705
339.6429
339.63719
339.60943
339.59134
339.54022
339.5067
339.44089
339.39612
339.32106
339.27041
339.18931
339.13676
339.05177
338.99965
338.91235
338.86202
338.77345
338.72573
338.63656
338.59193
338.50253
338.46125
338.37183
338.33403
338.24466
338.21038
338.12107
338.0903
338.00101
337.97371
337.88438
337.86051
337.77104
337.75053
337.66082
337.6436
337.55357
337.53955
337.44913
337.43819
337.34734
337.33934
337.24806
337.24284
337.15115
337.14854
337.05634
339.638
339.69656
339.67264
339.66559
339.66655
339.64333
339.63541
339.59344
339.57218
339.51645
339.48424
339.4187
339.37981
339.30725
339.26523
339.18773
339.14487
339.06405
339.02179
338.9388
338.8981
338.81373
338.7752
338.68997
338.65399
338.5682
338.53501
338.44885
338.41857
338.33212
338.30482
338.21813
338.19383
338.10689
338.08558
337.99835
337.98001
337.89246
337.87703
337.78911
337.77652
337.68821
337.67836
337.58964
337.58241
337.49331
337.48857
337.39909
337.39671
337.30676
339.66566
339.71338
339.69665
339.68687
339.69227
339.67166
339.67123
339.63605
339.62474
339.57732
339.55595
339.49879
339.47052
339.40586
339.37366
339.30336
339.26934
339.19496
339.16055
339.08327
339.04948
338.97017
338.9377
338.85695
338.82629
338.7445
338.71596
338.63339
338.60717
338.52399
338.50022
338.41653
338.39528
338.31113
338.29244
338.20786
338.19172
338.10672
338.09312
338.00769
337.99656
337.91072
337.90199
337.81576
337.80932
337.72272
337.71848
337.63153
337.6294
337.54201
339.69135
339.72979
339.71917
339.70704
339.71541
339.69606
339.70101
339.67067
339.6672
339.62642
339.61417
339.56421
339.54526
339.48775
339.46448
339.40096
339.37518
339.30706
339.28012
339.20854
339.18143
339.10728
339.08075
339.00467
338.97927
338.90173
338.87782
338.79913
338.77698
338.69738
338.67715
338.59679
338.57862
338.49761
338.48155
338.39997
338.38605
338.30395
338.29218
338.20959
338.19993
338.1169
338.10929
338.02586
338.02022
337.93644
337.93271
337.84858
337.8467
337.76216
339.71525
339.74564
339.74027
339.7262
339.7366
339.71766
339.72639
339.69933
339.70189
339.66624
339.66146
339.61753
339.6066
339.55539
339.54006
339.48278
339.46453
339.40236
339.38237
339.31637
339.29559
339.22661
339.20578
339.13448
339.11417
339.04104
339.02166
338.94707
338.92891
338.85314
338.83642
338.75967
338.74453
338.66696
338.65351
338.57522
338.56351
338.4846
338.47466
338.3952
338.387
338.30707
338.30059
338.22024
338.21542
338.1347
338.1315
338.05045
338.04884
337.96738
339.73753
339.76088
339.75998
339.74438
339.75621
339.73719
339.74851
339.72357
339.73063
339.69885
339.70004
339.66103
339.65682
339.61107
339.60263
339.55098
339.53946
339.48285
339.46922
339.40857
339.39367
339.32976
339.3143
339.24778
339.23232
339.16369
339.14865
339.07831
339.06401
338.99225
338.97893
338.906
338.89383
338.81991
338.80902
338.73427
338.72473
338.64926
338.64111
338.56503
338.55828
338.48168
338.47632
338.39928
338.39528
338.31786
338.31519
338.23742
338.23608
338.15794
339.75835
339.77548
339.77834
339.76156
339.77444
339.7551
339.76817
339.74453
339.75485
339.7259
339.73173
339.69666
339.69794
339.65684
339.65425
339.6076
339.60195
339.55046
339.5425
339.4869
339.47736
339.41836
339.40786
339.34605
339.33512
339.271
339.26006
339.19403
339.1834
339.11577
339.1057
339.03673
339.02742
338.95733
338.9489
338.87786
338.87042
338.79859
338.79218
338.71968
338.71434
338.64127
338.63701
338.56346
338.56027
338.48632
338.48419
338.4099
338.40882
338.33418
339.77782
339.78946
339.79543
339.77774
339.7914
339.77165
339.78588
339.76297
339.77561
339.74867
339.75802
339.72605
339.73171
339.69448
339.69675
339.65447
339.65384
339.60697
339.60399
339.55309
339.54833
339.494
339.488
339.43076
339.424
339.36432
339.35719
339.29546
339.28826
339.2248
339.2178
339.15288
339.14626
339.08011
339.07403
339.00683
339.0014
338.93333
338.92861
338.85981
338.85584
338.78644
338.78324
338.71334
338.71093
338.64061
338.639
338.56833
338.56751
338.49651
339.79605
339.80281
339.81128
339.79289
339.80713
339.78697
339.80196
339.77945
339.79366
339.76815
339.78006
339.75051
339.75955
339.72553
339.73172
339.69321
339.69678
339.65404
339.65532
339.60874
339.60817
339.55822
339.55622
339.50336
339.50035
339.445
339.44133
339.38385
339.37982
339.32051
339.31635
339.25549
339.2514
339.18923
339.18535
339.12207
339.11852
339.05431
339.05118
338.98619
338.98351
338.91788
338.91571
338.84955
338.84789
338.7813
338.78019
338.71323
338.71267
338.6454
339.81311
339.81554
339.82594
339.807
339.82166
339.80116
339.8166
339.79431
339.80953
339.78503
339.79876
339.77108
339.78266
339.75127
339.76054
339.72526
339.73224
339.69315
339.698
339.65535
339.65836
339.61248
339.61397
339.56526
339.56557
339.51437
339.51381
339.46045
339.45927
339.40406
339.40248
339.34567
339.34388
339.2857
339.28385
339.2245
339.22271
339.16239
339.16073
339.0996
339.09814
339.03633
339.03512
338.97276
338.97182
338.90901
338.90837
338.8452
338.84488
338.78141
339.82908
339.82763
339.83944
339.82008
339.83498
339.81422
339.82991
339.80778
339.8236
339.79984
339.81478
339.78856
339.80198
339.77274
339.78435
339.75182
339.7615
339.72562
339.73338
339.69426
339.70026
339.65814
339.6626
339.61776
339.62095
339.5737
339.57586
339.52647
339.52783
339.47659
339.47733
339.42447
339.42478
339.37052
339.37052
339.31508
339.31489
339.25845
339.25815
339.20087
339.20054
339.14256
339.14224
339.08369
339.08341
339.02441
339.02422
338.96485
338.96475
338.90511
339.84398
339.83902
339.8518
339.83209
339.8471
339.82618
339.84197
339.81997
339.8361
339.81292
339.82862
339.80356
339.81824
339.79078
339.80409
339.7739
339.78564
339.75256
339.76264
339.72668
339.73512
339.69641
339.70335
339.6621
339.66773
339.62419
339.62869
339.58309
339.58665
339.53923
339.54201
339.49299
339.49513
339.44472
339.44637
339.39476
339.39601
339.34339
339.34432
339.29086
339.29154
339.23736
339.23785
339.1831
339.18343
339.12822
339.12843
339.07286
339.07296
339.01713
339.85782
339.84965
339.86298
339.84301
339.858
339.83703
339.85278
339.83098
339.8472
339.82453
339.84063
339.81654
339.83201
339.80603
339.82053
339.79234
339.80559
339.77496
339.78679
339.75364
339.764
339.7284
339.73734
339.6994
339.70704
339.66696
339.67342
339.63139
339.63682
339.59304
339.59757
339.55223
339.55598
339.50928
339.51237
339.46449
339.467
339.41812
339.42014
339.37041
339.372
339.32155
339.32277
339.27175
339.27263
339.22115
339.22173
339.1699
339.17018
339.11812
339.87052
339.8594
339.87294
339.8528
339.86767
339.84676
339.86239
339.84084
339.857
339.83483
339.85106
339.82782
339.84373
339.81903
339.83427
339.8078
339.82209
339.7936
339.80671
339.77606
339.78788
339.75507
339.76557
339.73066
339.7399
339.70303
339.71109
339.6724
339.67938
339.63903
339.64502
339.6032
339.6083
339.56516
339.56947
339.52518
339.52879
339.48351
339.48648
339.44037
339.44275
339.39594
339.3978
339.35041
339.35178
339.30394
339.30484
339.25667
339.25712
339.20873
339.88188
339.86812
339.88162
339.86143
339.8761
339.85536
339.87081
339.84961
339.86559
339.84393
339.86011
339.83765
339.85372
339.83014
339.84579
339.82082
339.83576
339.80915
339.82313
339.7947
339.80756
339.77726
339.78893
339.75678
339.76725
339.73332
339.74264
339.70705
339.71526
339.67814
339.68532
339.6468
339.65302
339.61325
339.61859
339.57772
339.58224
339.54043
339.54419
339.50156
339.50462
339.46132
339.46372
339.41985
339.42163
339.37733
339.3785
339.33388
339.33447
339.28964
339.89159
339.87564
339.88896
339.86886
339.8833
339.86285
339.87806
339.85729
339.87303
339.85192
339.86792
339.84621
339.86222
339.83968
339.85545
339.83182
339.84709
339.82215
339.83664
339.8102
339.82374
339.7957
339.80817
339.77852
339.78989
339.75866
339.76891
339.73618
339.74534
339.71121
339.71932
339.6839
339.691
339.65441
339.66056
339.62294
339.6282
339.58967
339.59409
339.55479
339.5584
339.51845
339.5213
339.48081
339.48293
339.44203
339.44343
339.40222
339.40292
339.36152
339.89928
339.88179
339.89491
339.87508
339.88927
339.86924
339.88419
339.86394
339.87937
339.85887
339.87458
339.85363
339.86944
339.84786
339.86355
339.84114
339.85647
339.83303
339.84775
339.82308
339.837
339.81099
339.82396
339.79657
339.80852
339.77975
339.79065
339.76055
339.77038
339.73902
339.74781
339.71527
339.72303
339.68941
339.69619
339.66162
339.66745
339.63203
339.63695
339.6008
339.60485
339.56808
339.57129
339.53402
339.53641
339.49874
339.50033
339.46237
339.46316
339.42503
339.90465
339.88649
339.89948
339.8801
339.89407
339.87457
339.88923
339.86959
339.88467
339.86484
339.8802
339.86002
339.87551
339.85486
339.8703
339.84902
339.86422
339.84213
339.85685
339.83378
339.84781
339.82363
339.83683
339.81148
339.82375
339.79722
339.80851
339.7808
339.79107
339.76225
339.77149
339.74161
339.74984
339.71898
339.7262
339.69447
339.70072
339.6682
339.6735
339.6403
339.64468
339.61091
339.61439
339.58015
339.58275
339.54813
339.54986
339.51499
339.51585
339.48082
339.90772
339.88975
339.90274
339.884
339.89775
339.8789
339.89325
339.8743
339.88901
339.8699
339.88485
339.86547
339.88056
339.86081
339.8759
339.85568
339.87059
339.84974
339.86426
339.84263
339.85657
339.83404
339.84725
339.82374
339.83611
339.81159
339.82304
339.79752
339.80801
339.7815
339.79101
339.76356
339.77206
339.74375
339.75125
339.72214
339.72866
339.69884
339.7044
339.67396
339.67856
339.64759
339.65126
339.61986
339.6226
339.59086
339.59269
339.5607
339.56162
339.52949
339.90879
339.89173
339.9048
339.88685
339.90041
339.88231
339.89634
339.87813
339.89245
339.8741
339.88862
339.87005
339.88468
339.86583
339.88047
339.86126
339.87575
339.85606
339.87023
339.84993
339.8636
339.84256
339.85558
339.83374
339.846
339.82331
339.83473
339.81118
339.8217
339.79731
339.80688
339.78167
339.79028
339.76429
339.77193
339.74524
339.7519
339.72457
339.73026
339.70237
339.7071
339.67874
339.68252
339.65375
339.65658
339.62751
339.6294
339.60011
339.60106
339.57164
339.90846
339.89268
339.90585
339.8888
339.90216
339.88487
339.89857
339.88116
339.89507
339.87753
339.89158
339.87384
339.88797
339.87001
339.88412
339.86588
339.87987
339.86126
339.87497
339.85587
339.86913
339.84945
339.86213
339.84179
339.85379
339.83275
339.84397
339.82221
339.83259
339.8101
339.8196
339.79641
339.80498
339.78112
339.78875
339.76427
339.77095
339.7459
339.75163
339.72609
339.73086
339.70489
339.70871
339.68239
339.68526
339.65866
339.66057
339.63378
339.63474
339.60783
339.90731
339.89288
339.9061
339.88998
339.90314
339.8867
339.90005
339.88347
339.89695
339.88024
339.8938
339.87691
339.89049
339.87341
339.88696
339.86965
339.88307
339.86546
339.87861
339.86062
339.87338
339.85491
339.86715
339.84815
339.85976
339.84019
339.85109
339.83092
339.84104
339.82027
339.82956
339.80819
339.8166
339.79466
339.80218
339.7797
339.7863
339.76333
339.769
339.74561
339.75034
339.72657
339.73037
339.70629
339.70914
339.68482
339.68672
339.66223
339.66318
339.63859
339.90582
339.89261
339.90574
339.89056
339.90346
339.8879
339.90088
339.88515
339.89818
339.88231
339.89535
339.87931
339.89233
339.87611
339.88905
339.87263
339.88543
339.86876
339.88129
339.86432
339.87648
339.85913
339.8708
339.85303
339.86413
339.84589
339.85635
339.83762
339.84735
339.82813
339.83709
339.81736
339.82551
339.8053
339.81259
339.79194
339.79835
339.77728
339.78281
339.76137
339.766
339.74423
339.74794
339.72591
339.7287
339.70646
339.70833
339.68593
339.68687
339.66439
339.90424
339.89204
339.90494
339.89066
339.90327
339.88858
339.90116
339.88627
339.89884
339.8838
339.89632
339.88111
339.89354
339.87816
339.89046
339.87489
339.88701
339.87123
339.88308
339.86705
339.87854
339.8622
339.87325
339.85656
339.86708
339.85003
339.85995
339.84251
339.85177
339.83392
339.84247
339.82422
339.832
339.81335
339.82034
339.80132
339.80748
339.78812
339.79344
339.77376
339.77822
339.75827
339.76186
339.74167
339.74438
339.72401
339.72582
339.70533
339.70624
339.68568
339.90267
339.89134
339.90386
339.89042
339.90266
339.88882
339.90098
339.88693
339.899
339.88479
339.89676
339.88236
339.89418
339.87959
339.89123
339.87646
339.88788
339.87292
339.88405
339.86886
339.87964
339.86421
339.87457
339.85887
339.86874
339.85274
339.86206
339.84576
339.85448
339.83786
339.84592
339.82898
339.83634
339.81908
339.8257
339.80814
339.81399
339.79615
339.80121
339.78312
339.78737
339.76905
339.77247
339.75396
339.75654
339.73788
339.73961
339.72084
339.72171
339.70288
339.90112
339.89055
339.90257
339.88992
339.90174
339.88873
339.90042
339.88718
339.89875
339.88533
339.89672
339.8831
339.89428
339.88045
339.89139
339.87737
339.88805
339.87384
339.88421
339.86981
339.87983
339.86522
339.87484
339.86002
339.86919
339.85414
339.8628
339.84752
339.85563
339.84011
339.84762
339.83185
339.83872
339.82271
339.8289
339.81265
339.81813
339.80166
339.80642
339.78974
339.79374
339.77688
339.7801
339.7631
339.76553
339.7484
339.75003
339.73281
339.73363
339.71636
339.89958
339.88974
339.90116
339.88924
339.90059
339.88836
339.89956
339.88711
339.89813
339.88547
339.89625
339.88336
339.89387
339.88075
339.89096
339.87763
339.88753
339.87401
339.88359
339.86989
339.87912
339.86525
339.8741
339.86006
339.86849
339.85428
339.86225
339.84787
339.85534
339.84078
339.84771
339.83298
339.83932
339.82441
339.83014
339.81505
339.82013
339.80487
339.80929
339.79388
339.79759
339.78204
339.78505
339.76938
339.77165
339.75588
339.7574
339.74157
339.74233
339.72645
339.89802
339.88891
339.89967
339.88843
339.89927
339.88779
339.89846
339.88674
339.89719
339.88524
339.89538
339.88317
339.89296
339.88048
339.88992
339.87721
339.88632
339.87341
339.88218
339.86911
339.87752
339.86431
339.87236
339.85902
339.86668
339.85322
339.86046
339.84688
339.85368
339.83998
339.84629
339.83248
339.83827
339.82433
339.82957
339.81551
339.82016
339.80599
339.81004
339.79575
339.79916
339.78478
339.78754
339.77306
339.77515
339.7606
339.76201
339.7474
339.74811
339.73347
339.89643
339.88807
339.89811
339.88753
339.89782
339.88704
339.89716
339.88613
339.89597
339.88466
339.89412
339.8825
339.89154
339.87963
339.88827
339.87611
339.88438
339.87202
339.87994
339.86743
339.87501
339.86237
339.86961
339.85688
339.86376
339.85096
339.85747
339.84459
339.8507
339.83776
339.84344
339.83044
339.83566
339.82258
339.82731
339.81416
339.81838
339.80516
339.80883
339.79554
339.79864
339.78528
339.78779
339.77437
339.77627
339.76281
339.76409
339.75058
339.75122
339.73769
339.89481
339.88722
339.8965
339.88655
339.89628
339.88616
339.8957
339.88529
339.89447
339.88373
339.89245
339.88135
339.88959
339.87816
339.88596
339.87427
339.88168
339.86978
339.87685
339.86481
339.87154
339.85941
339.86583
339.85364
339.85973
339.84751
339.85327
339.84102
339.84644
339.83417
339.83922
339.82692
339.83157
339.81926
339.82347
339.81113
339.81489
339.80252
339.8058
339.7934
339.79617
339.78373
339.78598
339.77351
339.77522
339.76271
339.76386
339.75132
339.7519
339.73934
339.89313
339.88636
339.89484
339.88551
339.89466
339.88515
339.89408
339.88421
339.89269
339.88242
339.89034
339.87967
339.88705
339.87602
339.88293
339.87163
339.87815
339.86665
339.87283
339.8612
339.86707
339.85539
339.86097
339.84926
339.85457
339.84285
339.84788
339.83618
339.84091
339.82923
339.83364
339.82199
339.82606
339.81442
339.81813
339.8065
339.80981
339.79819
339.80108
339.78946
339.79192
339.78029
339.78228
339.77064
339.77215
339.7605
339.76151
339.74984
339.75035
339.73866
339.8914
339.88547
339.89313
339.88442
339.89297
339.88403
339.89228
339.88288
339.89057
339.88068
339.88773
339.87738
339.88385
339.87312
339.87911
339.86811
339.87371
339.86253
339.86781
339.85654
339.86155
339.85024
339.855
339.8437
339.84823
339.83697
339.84126
339.83005
339.83411
339.82296
339.82675
339.81566
339.81917
339.80813
339.81133
339.80034
339.80321
339.79226
339.79477
339.78385
339.78598
339.77507
339.77681
339.76591
339.76723
339.75633
339.75722
339.74631
339.74676
339.73584
339.88959
339.88458
339.89137
339.88328
339.8912
339.88276
339.89029
339.88123
339.88807
339.87843
339.88453
339.87439
339.87988
339.86937
339.87439
339.86361
339.86827
339.85735
339.86173
339.85074
339.85489
339.84391
339.84786
339.83693
339.84069
339.82983
339.83341
339.82264
339.82604
339.81536
339.81855
339.80797
339.81093
339.80043
339.80314
339.79272
339.79516
339.78481
339.78695
339.77665
339.77847
339.76821
339.7697
339.75946
339.76059
339.75036
339.75113
339.7409
339.74129
339.73105
339.88769
339.88366
339.88955
339.88209
339.88934
339.88132
339.88804
339.87919
339.88507
339.87555
339.88062
339.87059
339.87504
339.86464
339.86865
339.85804
339.86174
339.85101
339.85448
339.84374
339.84704
339.83634
339.8395
339.82888
339.83191
339.82141
339.8243
339.81393
339.81669
339.80644
339.80905
339.79893
339.80136
339.79136
339.7936
339.7837
339.78572
339.77591
339.7777
339.76796
339.76948
339.7598
339.76105
339.7514
339.75235
339.74273
339.74337
339.73376
339.73408
339.72445
339.8857
339.88273
339.88768
339.88084
339.88735
339.87963
339.88543
339.87664
339.88145
339.87191
339.87586
339.86582
339.86918
339.85882
339.86179
339.85126
339.854
339.84342
339.84599
339.83545
339.83792
339.82747
339.82985
339.81953
339.82184
339.81167
339.81391
339.8039
339.80605
339.7962
339.79826
339.78856
339.7905
339.78094
339.78274
339.77331
339.77494
339.76562
339.76707
339.75784
339.75909
339.74993
339.75095
339.74184
339.74262
339.73354
339.73407
339.725
339.72527
339.71619
339.88358
339.88181
339.88574
339.87952
339.88517
339.8776
339.88232
339.87341
339.87703
339.86733
339.87008
339.85992
339.86214
339.85174
339.85366
339.84317
339.84494
339.83447
339.83617
339.82579
339.82746
339.81723
339.81888
339.80882
339.81046
339.80059
339.80221
339.79254
339.79413
339.78465
339.78619
339.77688
339.77836
339.76922
339.7706
339.76161
339.76288
339.75401
339.75514
339.74638
339.74736
339.73869
339.73949
339.73087
339.7315
339.72291
339.72334
339.71477
339.71498
339.7064
339.88134
339.88092
339.88372
339.87808
339.88268
339.87508
339.87855
339.86933
339.87162
339.86161
339.86309
339.85273
339.85377
339.84327
339.84414
339.83364
339.83447
339.82408
339.82492
339.8147
339.8156
339.80558
339.80653
339.79673
339.79773
339.78816
339.7892
339.77985
339.78092
339.77179
339.77285
339.76392
339.76496
339.75622
339.75722
339.74863
339.74957
339.74112
339.74197
339.73364
339.73438
339.72615
339.72676
339.71859