/*--------------------------------*- C++ -*----------------------------------*\
| =========                 |                                                 |
| \\      /  F ield         | OpenFOAM: The Open Source CFD Toolbox           |
|  \\    /   O peration     | Version:  2312                                  |
|   \\  /    A nd           | Website:  www.openfoam.com                      |
|    \\/     M anipulation  |                                                 |
\*---------------------------------------------------------------------------*/
FoamFile
{
    version     2.0;
    format      ascii;
    arch        "LSB;label=32;scalar=64";
    class       volScalarField;
    location    "5";
    object      p;
}
// * * * * * * * * * * * * * * * * * * * * * * * * * * * * * * * * * * * * * //

dimensions      [0 2 -2 0 0 0 0];

internalField   nonuniform List<scalar> 
4000
(
26.552774
25.480674
25.189773
24.339504
24.088412
23.291666
23.01644
22.252566
21.949437
21.212935
20.884354
20.171929
19.820796
19.129597
18.758552
18.086063
17.697463
17.041453
16.637397
15.995886
15.578236
14.949468
14.519881
13.902294
13.462241
12.854445
12.405238
11.805995
11.348806
10.757008
10.292883
9.7075374
9.2374201
8.6576313
8.1823717
7.6073305
7.1277004
6.5566697
6.0733742
5.5056782
5.0193662
4.4543802
3.9656545
3.4027953
2.9122218
2.3509388
1.8590547
1.298821
0.80614128
0.24644041
26.548884
25.479228
25.18991
24.339515
24.088402
23.291677
23.01643
22.252575
21.949428
21.212944
20.884346
20.171937
19.820789
19.129604
18.758546
18.086069
17.697458
17.041459
16.637391
15.995891
15.578232
14.949472
14.519877
13.902297
13.462237
12.854448
12.405235
11.805998
11.348803
10.757011
10.292881
9.7075398
9.2374178
8.6576335
8.1823696
7.6073325
7.1276985
6.5566715
6.0733724
5.5056799
5.0193645
4.4543818
3.965653
3.4027968
2.9122203
2.3509403
1.8590533
1.2988224
0.80613979
0.24644272
26.539352
25.478077
25.190179
24.339505
24.088411
23.291676
23.016432
22.252574
21.949429
21.212943
20.884347
20.171936
19.82079
19.129603
18.758547
18.086068
17.697458
17.041458
16.637392
15.99589
15.578232
14.949472
14.519877
13.902297
13.462238
12.854448
12.405236
11.805998
11.348803
10.75701
10.292881
9.7075395
9.2374181
8.6576333
8.1823699
7.6073323
7.1276987
6.5566713
6.0733726
5.5056797
5.0193647
4.4543816
3.9656532
3.4027966
2.9122205
2.3509401
1.8590534
1.2988223
0.80613983
0.24644345
26.529665
25.477051
25.190463
24.339491
24.088424
23.29167
23.016437
22.252569
21.949434
21.212938
20.884351
20.171932
19.820794
19.1296
18.75855
18.086065
17.697461
17.041455
16.637395
15.995888
15.578235
14.94947
14.519879
13.902295
13.462239
12.854446
12.405237
11.805997
11.348805
10.757009
10.292882
9.7075383
9.2374193
8.6576321
8.182371
7.6073312
7.1276997
6.5566704
6.0733735
5.5056788
5.0193656
4.4543807
3.965654
3.4027958
2.9122213
2.3509393
1.8590542
1.2988215
0.80614048
0.2464435
26.517982
25.475811
25.19071
24.339483
24.088438
23.291664
23.016442
22.252564
21.949438
21.212934
20.884355
20.171928
19.820797
19.129597
18.758553
18.086063
17.697464
17.041453
16.637397
15.995886
15.578237
14.949468
14.519881
13.902293
13.462241
12.854445
12.405239
11.805995
11.348806
10.757008
10.292884
9.7075371
9.2374204
8.657631
8.182372
7.6073302
7.1277007
6.5566695
6.0733744
5.5056779
5.0193664
4.4543799
3.9656548
3.4027951
2.912222
2.3509386
1.8590549
1.2988208
0.80614114
0.24644346
26.509423
25.4748
25.19089
24.339485
24.088454
23.29166
23.016446
22.25256
21.949441
21.212931
20.884358
20.171925
19.8208
19.129594
18.758555
18.08606
17.697466
17.041451
16.637399
15.995884
15.578238
14.949466
14.519883
13.902292
13.462242
12.854443
12.40524
11.805994
11.348807
10.757007
10.292885
9.7075362
9.2374212
8.6576302
8.1823728
7.6073295
7.1277014
6.5566688
6.0733751
5.5056773
5.019367
4.4543793
3.9656554
3.4027945
2.9122226
2.350938
1.8590555
1.2988202
0.80614168
0.24644346
26.498934
25.473515
25.190976
24.339513
24.088475
23.291658
23.016449
22.252556
21.949444
21.212928
20.884361
20.171923
19.820802
19.129592
18.758557
18.086058
17.697468
17.041449
16.6374
15.995883
15.57824
14.949465
14.519884
13.902291
13.462244
12.854442
12.405241
11.805993
11.348808
10.757006
10.292885
9.7075354
9.237422
8.6576295
8.1823734
7.6073289
7.127702
6.5566682
6.0733756
5.5056768
5.0193676
4.4543788
3.9656559
3.402794
2.9122231
2.3509376
1.8590559
1.2988197
0.80614215
0.24644347
26.491169
25.472722
25.190953
24.339576
24.0885
23.291657
23.016452
22.252553
21.949446
21.212926
20.884363
20.171921
19.820804
19.12959
18.758559
18.086057
17.697469
17.041448
16.637402
15.995881
15.578241
14.949464
14.519885
13.90229
13.462244
12.854442
12.405242
11.805992
11.348809
10.757005
10.292886
9.7075348
9.2374226
8.6576289
8.182374
7.6073283
7.1277025
6.5566677
6.0733761
5.5056763
5.019368
4.4543784
3.9656563
3.4027936
2.9122235
2.3509371
1.8590563
1.2988192
0.80614259
0.24644346
26.483439
25.471558
25.190831
24.339632
24.088518
23.291655
23.016454
22.252551
21.949449
21.212924
20.884365
20.171919
19.820806
19.129589
18.758561
18.086055
17.697471
17.041446
16.637403
15.99588
15.578242
14.949463
14.519886
13.902289
13.462245
12.854441
12.405243
11.805992
11.348809
10.757004
10.292887
9.7075342
9.2374232
8.6576284
8.1823745
7.6073278
7.127703
6.5566672
6.0733766
5.5056758
5.0193684
4.454378
3.9656567
3.4027932
2.9122239
2.3509368
1.8590567
1.2988188
0.80614301
0.24644343
26.474662
25.470673
25.190757
24.339603
24.088512
23.291648
23.016455
22.252548
21.94945
21.212922
20.884367
20.171917
19.820807
19.129587
18.758562
18.086054
17.697472
17.041445
16.637404
15.995879
15.578243
14.949462
14.519887
13.902288
13.462246
12.85444
12.405243
11.805991
11.34881
10.757004
10.292887
9.7075336
9.2374237
8.6576279
8.182375
7.6073274
7.1277034
6.5566668
6.073377
5.5056755
5.0193688
4.4543776
3.9656571
3.4027928
2.9122242
2.3509364
1.8590571
1.2988184
0.8061434
0.24644339
26.467806
25.469251
25.190779
24.339525
24.088488
23.291638
23.016455
22.252546
21.949452
21.21292
20.884368
20.171916
19.820809
19.129586
18.758563
18.086053
17.697473
17.041444
16.637405
15.995878
15.578244
14.949461
14.519887
13.902287
13.462247
12.854439
12.405244
11.80599
11.348811
10.757003
10.292888
9.7075331
9.2374241
8.6576274
8.1823754
7.607327
7.1277038
6.5566664
6.0733773
5.5056751
5.0193692
4.4543773
3.9656574
3.4027925
2.9122245
2.3509361
1.8590574
1.2988181
0.80614377
0.24644335
26.459248
25.46793
25.190834
24.339478
24.088467
23.291629
23.016455
22.252543
21.949453
21.212918
20.88437
20.171915
19.82081
19.129585
18.758564
18.086052
17.697474
17.041443
16.637406
15.995877
15.578245
14.94946
14.519888
13.902286
13.462247
12.854439
12.405245
11.80599
11.348811
10.757003
10.292888
9.7075327
9.2374246
8.657627
8.1823758
7.6073266
7.1277042
6.5566661
6.0733777
5.5056748
5.0193695
4.454377
3.9656577
3.4027922
2.9122248
2.3509358
1.8590576
1.2988178
0.80614412
0.24644329
26.453391
25.466549
25.190687
24.339429
24.088442
23.29162
23.016454
22.252541
21.949455
21.212917
20.884371
20.171913
19.820811
19.129583
18.758565
18.086051
17.697475
17.041442
16.637407
15.995877
15.578245
14.94946
14.519889
13.902286
13.462248
12.854438
12.405245
11.805989
11.348812
10.757002
10.292889
9.7075323
9.2374249
8.6576267
8.1823761
7.6073263
7.1277045
6.5566658
6.0733779
5.5056745
5.0193697
4.4543767
3.9656579
3.402792
2.9122251
2.3509356
1.8590579
1.2988175
0.80614445
0.24644323
26.44632
25.465439
25.190383
24.339346
24.088411
23.291609
23.016453
22.252538
21.949456
21.212916
20.884372
20.171912
19.820812
19.129582
18.758566
18.08605
17.697476
17.041442
16.637408
15.995876
15.578246
14.949459
14.519889
13.902285
13.462249
12.854438
12.405245
11.805989
11.348812
10.757002
10.292889
9.7075319
9.2374253
8.6576264
8.1823764
7.607326
7.1277048
6.5566655
6.0733782
5.5056742
5.01937
4.4543765
3.9656582
3.4027917
2.9122253
2.3509354
1.8590581
1.2988173
0.80614476
0.24644317
26.441224
25.46416
25.189994
24.339255
24.088377
23.291598
23.016451
22.252536
21.949456
21.212914
20.884373
20.171911
19.820813
19.129582
18.758567
18.086049
17.697476
17.041441
16.637408
15.995875
15.578247
14.949458
14.51989
13.902285
13.462249
12.854437
12.405246
11.805988
11.348812
10.757002
10.292889
9.7075316
9.2374256
8.6576261
8.1823767
7.6073257
7.127705
6.5566652
6.0733785
5.505674
5.0193702
4.4543762
3.9656584
3.4027915
2.9122255
2.3509351
1.8590583
1.2988171
0.80614506
0.2464431
26.435189
25.462898
25.189583
24.339169
24.088344
23.291586
23.016449
22.252534
21.949457
21.212913
20.884374
20.17191
19.820814
19.129581
18.758568
18.086048
17.697477
17.04144
16.637409
15.995875
15.578247
14.949458
14.51989
13.902284
13.462249
12.854437
12.405246
11.805988
11.348813
10.757001
10.29289
9.7075313
9.2374259
8.6576258
8.182377
7.6073254
7.1277053
6.556665
6.0733787
5.5056738
5.0193704
4.454376
3.9656586
3.4027913
2.9122257
2.3509349
1.8590585
1.2988168
0.80614534
0.24644303
26.430788
25.461563
25.189139
24.339077
24.08831
23.291572
23.016446
22.252531
21.949458
21.212912
20.884375
20.171909
19.820815
19.12958
18.758569
18.086048
17.697478
17.04144
16.637409
15.995874
15.578248
14.949457
14.519891
13.902284
13.46225
12.854436
12.405247
11.805988
11.348813
10.757001
10.29289
9.707531
9.2374262
8.6576255
8.1823772
7.6073252
7.1277055
6.5566648
6.0733789
5.5056736
5.0193706
4.4543758
3.9656588
3.4027911
2.9122259
2.3509348
1.8590587
1.2988167
0.8061456
0.24644296
26.42574
25.460262
25.188742
24.33896
24.088268
23.291554
23.016441
22.252528
21.949458
21.212911
20.884376
20.171908
19.820816
19.129579
18.758569
18.086047
17.697478
17.041439
16.63741
15.995874
15.578248
14.949457
14.519891
13.902283
13.46225
12.854436
12.405247
11.805987
11.348813
10.757001
10.29289
9.7075308
9.2374264
8.6576253
8.1823775
7.607325
7.1277057
6.5566646
6.0733791
5.5056734
5.0193708
4.4543757
3.965659
3.402791
2.9122261
2.3509346
1.8590588
1.2988165
0.80614585
0.24644288
26.422042
25.458992
25.188383
24.338825
24.088216
23.291533
23.016434
22.252524
21.949457
21.212909
20.884376
20.171908
19.820816
19.129579
18.75857
18.086046
17.697479
17.041439
16.63741
15.995873
15.578249
14.949456
14.519892
13.902283
13.462251
12.854436
12.405247
11.805987
11.348814
10.757
10.292891
9.7075305
9.2374266
8.6576251
8.1823777
7.6073248
7.1277059
6.5566644
6.0733793
5.5056732
5.019371
4.4543755
3.9656591
3.4027908
2.9122262
2.3509344
1.859059
1.2988163
0.80614609
0.24644281
26.417921
25.457754
25.188047
24.338708
24.088164
23.291512
23.016427
22.25252
21.949457
21.212908
20.884377
20.171907
19.820817
19.129578
18.75857
18.086046
17.697479
17.041438
16.637411
15.995873
15.578249
14.949456
14.519892
13.902283
13.462251
12.854435
12.405248
11.805987
11.348814
10.757
10.292891
9.7075303
9.2374268
8.6576249
8.1823779
7.6073246
7.1277061
6.5566642
6.0733794
5.5056731
5.0193711
4.4543753
3.9656593
3.4027907
2.9122264
2.3509343
1.8590591
1.2988162
0.80614632
0.24644274
26.41485
25.456651
25.187678
24.338616
24.088123
23.291497
23.016422
22.252517
21.949457
21.212907
20.884377
20.171906
19.820817
19.129577
18.758571
18.086045
17.69748
17.041438
16.637411
15.995872
15.578249
14.949456
14.519892
13.902282
13.462251
12.854435
12.405248
11.805987
11.348814
10.757
10.292891
9.7075301
9.237427
8.6576247
8.182378
7.6073244
7.1277062
6.5566641
6.0733796
5.5056729
5.0193713
4.4543752
3.9656594
3.4027905
2.9122265
2.3509342
1.8590592
1.2988161
0.80614653
0.24644266
26.411526
25.45557
25.187317
24.338529
24.088095
23.291489
23.016419
22.252515
21.949457
21.212906
20.884378
20.171905
19.820818
19.129577
18.758571
18.086045
17.69748
17.041437
16.637412
15.995872
15.57825
14.949455
14.519893
13.902282
13.462252
12.854435
12.405248
11.805986
11.348814
10.757
10.292891
9.7075299
9.2374272
8.6576245
8.1823782
7.6073243
7.1277064
6.5566639
6.0733797
5.5056728
5.0193714
4.4543751
3.9656595
3.4027904
2.9122266
2.3509341
1.8590594
1.2988159
0.80614673
0.24644259
26.40898
25.454669
25.186968
24.338437
24.088073
23.291489
23.016419
22.252513
21.949457
21.212905
20.884378
20.171905
19.820818
19.129576
18.758572
18.086045
17.697481
17.041437
16.637412
15.995872
15.57825
14.949455
14.519893
13.902282
13.462252
12.854435
12.405248
11.805986
11.348815
10.756999
10.292891
9.7075297
9.2374274
8.6576243
8.1823784
7.6073241
7.1277065
6.5566638
6.0733799
5.5056727
5.0193715
4.454375
3.9656596
3.4027903
2.9122267
2.3509339
1.8590595
1.2988158
0.80614692
0.24644252
26.406332
25.453753
25.186655
24.338347
24.088051
23.291493
23.016419
22.252513
21.949457
21.212905
20.884378
20.171904
19.820819
19.129576
18.758572
18.086044
17.697481
17.041436
16.637412
15.995871
15.57825
14.949455
14.519893
13.902282
13.462252
12.854434
12.405249
11.805986
11.348815
10.756999
10.292892
9.7075296
9.2374275
8.6576242
8.1823785
7.607324
7.1277067
6.5566637
6.07338
5.5056725
5.0193716
4.4543748
3.9656597
3.4027902
2.9122268
2.3509338
1.8590596
1.2988157
0.8061471
0.24644246
26.404208
25.453045
25.186367
24.338268
24.088027
23.291499
23.01642
22.252512
21.949458
21.212904
20.884379
20.171904
19.820819
19.129575
18.758573
18.086044
17.697481
17.041436
16.637413
15.995871
15.578251
14.949455
14.519893
13.902281
13.462252
12.854434
12.405249
11.805986
11.348815
10.756999
10.292892
9.7075294
9.2374277
8.6576241
8.1823786
7.6073239
7.1277068
6.5566636
6.0733801
5.5056724
5.0193717
4.4543747
3.9656598
3.4027901
2.9122269
2.3509337
1.8590597
1.2988156
0.80614726
0.24644239
26.402137
25.452287
25.186109
24.338199
24.088002
23.291506
23.016421
22.252512
21.949458
21.212903
20.884379
20.171903
19.82082
19.129575
18.758573
18.086043
17.697482
17.041436
16.637413
15.995871
15.578251
14.949454
14.519894
13.902281
13.462252
12.854434
12.405249
11.805986
11.348815
10.756999
10.292892
9.7075293
9.2374278
8.6576239
8.1823788
7.6073237
7.1277069
6.5566635
6.0733802
5.5056723
5.0193718
4.4543747
3.9656599
3.40279
2.912227
2.3509337
1.8590597
1.2988156
0.80614741
0.24644233
26.400301
25.451744
25.185876
24.338141
24.087977
23.291513
23.016423
22.252512
21.949459
21.212903
20.88438
20.171903
19.82082
19.129575
18.758573
18.086043
17.697482
17.041436
16.637413
15.99587
15.578251
14.949454
14.519894
13.902281
13.462253
12.854434
12.405249
11.805985
11.348815
10.756999
10.292892
9.7075292
9.2374279
8.6576238
8.1823789
7.6073236
7.127707
6.5566634
6.0733803
5.5056722
5.0193719
4.4543746
3.96566
3.4027899
2.9122271
2.3509336
1.8590598
1.2988155
0.80614755
0.24644227
26.398744
25.451138
25.185671
24.338093
24.087956
23.291518
23.016426
22.252513
21.94946
21.212903
20.88438
20.171902
19.82082
19.129574
18.758574
18.086043
17.697482
17.041435
16.637413
15.99587
15.578251
14.949454
14.519894
13.902281
13.462253
12.854434
12.405249
11.805985
11.348815
10.756999
10.292892
9.707529
9.237428
8.6576237
8.182379
7.6073235
7.1277071
6.5566633
6.0733804
5.5056722
5.019372
4.4543745
3.9656601
3.4027898
2.9122272
2.3509335
1.8590599
1.2988154
0.80614768
0.24644222
26.397134
25.450729
25.185495
24.338054
24.087938
23.29152
23.016429
22.252515
21.949461
21.212902
20.88438
20.171902
19.82082
19.129574
18.758574
18.086043
17.697483
17.041435
16.637414
15.99587
15.578251
14.949454
14.519894
13.902281
13.462253
12.854434
12.405249
11.805985
11.348816
10.756999
10.292892
9.7075289
9.2374281
8.6576236
8.1823791
7.6073235
7.1277072
6.5566632
6.0733804
5.5056721
5.0193721
4.4543744
3.9656602
3.4027898
2.9122272
2.3509334
1.8590599
1.2988154
0.8061478
0.24644217
26.395998
25.450269
25.185346
24.338023
24.087925
23.291522
23.016431
22.252517
21.949462
21.212902
20.884381
20.171902
19.820821
19.129574
18.758574
18.086042
17.697483
17.041435
16.637414
15.99587
15.578252
14.949454
14.519894
13.90228
13.462253
12.854433
12.405249
11.805985
11.348816
10.756998
10.292892
9.7075288
9.2374282
8.6576235
8.1823791
7.6073234
7.1277072
6.5566631
6.0733805
5.505672
5.0193722
4.4543744
3.9656602
3.4027897
2.9122273
2.3509334
1.85906
1.2988153
0.80614791
0.24644212
26.394636
25.449971
25.185226
24.337999
24.087916
23.291522
23.016432
22.25252
21.949463
21.212902
20.884381
20.171901
19.820821
19.129573
18.758574
18.086042
17.697483
17.041435
16.637414
15.99587
15.578252
14.949453
14.519895
13.90228
13.462253
12.854433
12.40525
11.805985
11.348816
10.756998
10.292892
9.7075288
9.2374283
8.6576235
8.1823792
7.6073233
7.1277073
6.556663
6.0733806
5.505672
5.0193722
4.4543743
3.9656603
3.4027897
2.9122274
2.3509333
1.85906
1.2988153
0.806148
0.24644208
26.393789
25.449639
25.18513
24.337983
24.08791
23.291524
23.016432
22.252523
21.949464
21.212902
20.884381
20.171901
19.820821
19.129573
18.758575
18.086042
17.697483
17.041435
16.637414
15.99587
15.578252
14.949453
14.519895
13.90228
13.462253
12.854433
12.40525
11.805985
11.348816
10.756998
10.292893
9.7075287
9.2374284
8.6576234
8.1823793
7.6073232
7.1277074
6.556663
6.0733806
5.5056719
5.0193723
4.4543742
3.9656603
3.4027896
2.9122274
2.3509333
1.8590601
1.2988153
0.80614807
0.24644204
26.392734
25.449443
25.185061
24.337974
24.087907
23.291526
23.016432
22.252526
21.949465
21.212902
20.884382
20.171901
19.820821
19.129573
18.758575
18.086042
17.697483
17.041434
16.637414
15.995869
15.578252
14.949453
14.519895
13.90228
13.462253
12.854433
12.40525
11.805985
11.348816
10.756998
10.292893
9.7075286
9.2374284
8.6576233
8.1823793
7.6073232
7.1277074
6.5566629
6.0733807
5.5056719
5.0193723
4.4543742
3.9656604
3.4027896
2.9122274
2.3509332
1.8590601
1.2988152
0.80614814
0.24644201
26.392138
25.449211
25.18501
24.33797
24.087906
23.291528
23.016431
22.252529
21.949466
21.212902
20.884382
20.171901
19.820821
19.129573
18.758575
18.086041
17.697483
17.041434
16.637414
15.995869
15.578252
14.949453
14.519895
13.90228
13.462253
12.854433
12.40525
11.805985
11.348816
10.756998
10.292893
9.7075286
9.2374285
8.6576233
8.1823794
7.6073231
7.1277075
6.5566629
6.0733807
5.5056718
5.0193723
4.4543742
3.9656604
3.4027895
2.9122275
2.3509332
1.8590602
1.2988152
0.80614818
0.24644199
26.391376
25.44909
25.184979
24.33797
24.087907
23.291531
23.01643
22.252532
21.949467
21.212902
20.884382
20.1719
19.820822
19.129573
18.758575
18.086041
17.697484
17.041434
16.637415
15.995869
15.578252
14.949453
14.519895
13.90228
13.462254
12.854433
12.40525
11.805985
11.348816
10.756998
10.292893
9.7075285
9.2374286
8.6576232
8.1823794
7.6073231
7.1277075
6.5566629
6.0733808
5.5056718
5.0193724
4.4543741
3.9656604
3.4027895
2.9122275
2.3509332
1.8590602
1.2988152
0.80614821
0.24644198
26.391019
25.448925
25.184957
24.337973
24.087909
23.291533
23.016429
22.252534
21.949468
21.212903
20.884382
20.1719
19.820822
19.129572
18.758575
18.086041
17.697484
17.041434
16.637415
15.995869
15.578252
14.949453
14.519895
13.90228
13.462254
12.854433
12.40525
11.805985
11.348816
10.756998
10.292893
9.7075285
9.2374286
8.6576232
8.1823795
7.6073231
7.1277075
6.5566628
6.0733808
5.5056718
5.0193724
4.4543741
3.9656605
3.4027895
2.9122275
2.3509332
1.8590602
1.2988152
0.80614821
0.24644197
26.390519
25.448848
25.184946
24.337977
24.087911
23.291536
23.016428
22.252536
21.94947
21.212903
20.884382
20.1719
19.820822
19.129572
18.758575
18.086041
17.697484
17.041434
16.637415
15.995869
15.578252
14.949453
14.519895
13.90228
13.462254
12.854433
12.40525
11.805984
11.348816
10.756998
10.292893
9.7075284
9.2374286
8.6576232
8.1823795
7.607323
7.1277076
6.5566628
6.0733808
5.5056717
5.0193724
4.4543741
3.9656605
3.4027895
2.9122275
2.3509331
1.8590602
1.2988152
0.80614819
0.24644198
26.390404
25.448719
25.184935
24.337979
24.087912
23.291537
23.016427
22.252536
21.949471
21.212903
20.884382
20.1719
19.820822
19.129572
18.758575
18.086041
17.697484
17.041434
16.637415
15.995869
15.578252
14.949453
14.519895
13.90228
13.462254
12.854433
12.40525
11.805984
11.348816
10.756998
10.292893
9.7075284
9.2374286
8.6576232
8.1823795
7.607323
7.1277076
6.5566628
6.0733808
5.5056717
5.0193724
4.4543741
3.9656605
3.4027895
2.9122275
2.3509332
1.8590602
1.2988152
0.80614815
0.24644199
26.390152
25.448668
25.184929
24.33798
24.087913
23.291538
23.016427
22.252536
21.949472
21.212903
20.884382
20.1719
19.820822
19.129572
18.758575
18.086041
17.697484
17.041434
16.637415
15.995869
15.578252
14.949453
14.519895
13.90228
13.462254
12.854433
12.40525
11.805984
11.348816
10.756998
10.292893
9.7075284
9.2374286
8.6576231
8.1823795
7.607323
7.1277076
6.5566628
6.0733808
5.5056717
5.0193724
4.4543741
3.9656605
3.4027895
2.9122275
2.3509332
1.8590602
1.2988152
0.8061481
0.24644201
26.390235
25.448588
25.18492
24.33798
24.087914
23.291539
23.016427
22.252535
21.949473
21.212903
20.884382
20.1719
19.820822
19.129572
18.758575
18.086041
17.697484
17.041434
16.637415
15.995869
15.578252
14.949453
14.519895
13.90228
13.462254
12.854433
12.40525
11.805984
11.348816
10.756998
10.292893
9.7075284
9.2374286
8.6576232
8.1823795
7.607323
7.1277076
6.5566628
6.0733808
5.5056717
5.0193724
4.4543741
3.9656605
3.4027895
2.9122275
2.3509332
1.8590601
1.2988152
0.80614807
0.24644202
26.390117
25.448613
25.184922
24.33798
24.087914
23.291539
23.016427
22.252535
21.949473
21.212903
20.884382
20.1719
19.820822
19.129572
18.758575
18.086041
17.697484
17.041434
16.637415
15.995869
15.578252
14.949453
14.519895
13.90228
13.462254
12.854433
12.40525
11.805984
11.348816
10.756998
10.292893
9.7075284
9.2374286
8.6576232
8.1823795
7.607323
7.1277076
6.5566628
6.0733808
5.5056717
5.0193724
4.4543741
3.9656605
3.4027895
2.9122275
2.3509332
1.8590601
1.2988152
0.80614807
0.24644202
26.39029
25.448625
25.184925
24.33798
24.087913
23.291538
23.016427
22.252536
21.949472
21.212903
20.884382
20.1719
19.820822
19.129572
18.758575
18.086041
17.697484
17.041434
16.637415
15.995869
15.578252
14.949453
14.519895
13.90228
13.462254
12.854433
12.40525
11.805984
11.348816
10.756998
10.292893
9.7075284
9.2374286
8.6576231
8.1823795
7.607323
7.1277076
6.5566628
6.0733808
5.5056717
5.0193724
4.4543741
3.9656605
3.4027895
2.9122275
2.3509332
1.8590602
1.2988152
0.8061481
0.24644201
26.390302
25.448728
25.184935
24.337979
24.087912
23.291537
23.016427
22.252536
21.949471
21.212903
20.884382
20.1719
19.820822
19.129572
18.758575
18.086041
17.697484
17.041434
16.637415
15.995869
15.578252
14.949453
14.519895
13.90228
13.462254
12.854433
12.40525
11.805984
11.348816
10.756998
10.292893
9.7075284
9.2374286
8.6576232
8.1823795
7.607323
7.1277076
6.5566628
6.0733808
5.5056717
5.0193724
4.4543741
3.9656605
3.4027895
2.9122275
2.3509332
1.8590602
1.2988152
0.80614815
0.24644199
26.390678
25.44879
25.184941
24.337977
24.087911
23.291535
23.016428
22.252536
21.94947
21.212903
20.884382
20.1719
19.820822
19.129572
18.758575
18.086041
17.697484
17.041434
16.637415
15.995869
15.578252
14.949453
14.519895
13.90228
13.462254
12.854433
12.40525
11.805984
11.348816
10.756998
10.292893
9.7075284
9.2374286
8.6576232
8.1823795
7.607323
7.1277076
6.5566628
6.0733808
5.5056717
5.0193724
4.4543741
3.9656605
3.4027895
2.9122275
2.3509331
1.8590602
1.2988152
0.80614819
0.24644198
26.390929
25.448923
25.184955
24.337973
24.087909
23.291533
23.016428
22.252534
21.949468
21.212903
20.884382
20.1719
19.820822
19.129572
18.758575
18.086041
17.697484
17.041434
16.637415
15.995869
15.578252
14.949453
14.519895
13.90228
13.462254
12.854433
12.40525
11.805985
11.348816
10.756998
10.292893
9.7075285
9.2374286
8.6576232
8.1823795
7.6073231
7.1277075
6.5566628
6.0733808
5.5056718
5.0193724
4.4543741
3.9656605
3.4027895
2.9122275
2.3509332
1.8590602
1.2988152
0.80614821
0.24644197
26.391561
25.449016
25.184972
24.33797
24.087907
23.29153
23.01643
22.252532
21.949467
21.212902
20.884382
20.1719
19.820822
19.129573
18.758575
18.086041
17.697484
17.041434
16.637415
15.995869
15.578252
14.949453
14.519895
13.90228
13.462254
12.854433
12.40525
11.805985
11.348816
10.756998
10.292893
9.7075285
9.2374286
8.6576232
8.1823794
7.6073231
7.1277075
6.5566629
6.0733808
5.5056718
5.0193724
4.4543741
3.9656604
3.4027895
2.9122275
2.3509332
1.8590602
1.2988152
0.80614821
0.24644198
26.392053
25.449197
25.185008
24.33797
24.087906
23.291528
23.016431
22.252529
21.949466
21.212902
20.884382
20.171901
19.820821
19.129573
18.758575
18.086041
17.697483
17.041434
16.637414
15.995869
15.578252
14.949453
14.519895
13.90228
13.462253
12.854433
12.40525
11.805985
11.348816
10.756998
10.292893
9.7075286
9.2374285
8.6576233
8.1823794
7.6073231
7.1277075
6.5566629
6.0733807
5.5056718
5.0193723
4.4543742
3.9656604
3.4027895
2.9122275
2.3509332
1.8590602
1.2988152
0.80614818
0.24644199
26.392957
25.449353
25.185054
24.337974
24.087907
23.291525
23.016432
22.252526
21.949465
21.212902
20.884382
20.171901
19.820821
19.129573
18.758575
18.086042
17.697483
17.041434
16.637414
15.995869
15.578252
14.949453
14.519895
13.90228
13.462253
12.854433
12.40525
11.805985
11.348816
10.756998
10.292893
9.7075286
9.2374284
8.6576233
8.1823793
7.6073232
7.1277074
6.5566629
6.0733807
5.5056719
5.0193723
4.4543742
3.9656604
3.4027896
2.9122274
2.3509332
1.8590601
1.2988152
0.80614814
0.24644201
26.393697
25.449615
25.185127
24.337984
24.08791
23.291524
23.016432
22.252523
21.949464
21.212902
20.884381
20.171901
19.820821
19.129573
18.758575
18.086042
17.697483
17.041435
16.637414
15.99587
15.578252
14.949453
14.519895
13.90228
13.462253
12.854433
12.40525
11.805985
11.348816
10.756998
10.292893
9.7075287
9.2374284
8.6576234
8.1823793
7.6073232
7.1277074
6.556663
6.0733806
5.5056719
5.0193723
4.4543742
3.9656603
3.4027896
2.9122274
2.3509333
1.8590601
1.2988153
0.80614807
0.24644204
26.394898
25.449862
25.185218
24.338
24.087916
23.291522
23.016432
22.25252
21.949463
21.212902
20.884381
20.171901
19.820821
19.129573
18.758574
18.086042
17.697483
17.041435
16.637414
15.99587
15.578252
14.949453
14.519895
13.90228
13.462253
12.854433
12.40525
11.805985
11.348816
10.756998
10.292892
9.7075288
9.2374283
8.6576235
8.1823792
7.6073233
7.1277073
6.556663
6.0733806
5.505672
5.0193722
4.4543743
3.9656603
3.4027897
2.9122274
2.3509333
1.85906
1.2988153
0.806148
0.24644208
26.395908
25.450238
25.185341
24.338024
24.087925
23.291521
23.01643
22.252517
21.949462
21.212902
20.884381
20.171902
19.820821
19.129574
18.758574
18.086042
17.697483
17.041435
16.637414
15.99587
15.578252
14.949454
14.519894
13.90228
13.462253
12.854433
12.405249
11.805985
11.348816
10.756998
10.292892
9.7075288
9.2374282
8.6576235
8.1823791
7.6073234
7.1277072
6.5566631
6.0733805
5.505672
5.0193722
4.4543744
3.9656602
3.4027897
2.9122273
2.3509334
1.85906
1.2988153
0.80614791
0.24644212
26.397374
25.450588
25.185486
24.338055
24.087939
23.29152
23.016428
22.252515
21.949461
21.212902
20.88438
20.171902
19.82082
19.129574
18.758574
18.086043
17.697483
17.041435
16.637414
15.99587
15.578251
14.949454
14.519894
13.902281
13.462253
12.854434
12.405249
11.805985
11.348816
10.756999
10.292892
9.7075289
9.2374281
8.6576236
8.1823791
7.6073235
7.1277072
6.5566632
6.0733804
5.5056721
5.0193721
4.4543744
3.9656602
3.4027898
2.9122272
2.3509334
1.8590599
1.2988154
0.8061478
0.24644217
26.39875
25.451103
25.185665
24.338095
24.087956
23.291518
23.016426
22.252513
21.94946
21.212903
20.88438
20.171902
19.82082
19.129574
18.758574
18.086043
17.697482
17.041435
16.637413
15.99587
15.578251
14.949454
14.519894
13.902281
13.462253
12.854434
12.405249
11.805985
11.348815
10.756999
10.292892
9.707529
9.237428
8.6576237
8.182379
7.6073235
7.1277071
6.5566633
6.0733804
5.5056722
5.019372
4.4543745
3.9656601
3.4027898
2.9122272
2.3509335
1.8590599
1.2988154
0.80614768
0.24644222
26.400437
25.45157
25.185865
24.338143
24.087978
23.291513
23.016423
22.252512
21.949459
21.212903
20.88438
20.171903
19.82082
19.129575
18.758573
18.086043
17.697482
17.041436
16.637413
15.99587
15.578251
14.949454
14.519894
13.902281
13.462253
12.854434
12.405249
11.805985
11.348815
10.756999
10.292892
9.7075292
9.2374279
8.6576238
8.1823789
7.6073236
7.127707
6.5566634
6.0733803
5.5056722
5.0193719
4.4543746
3.96566
3.4027899
2.9122271
2.3509336
1.8590598
1.2988155
0.80614755
0.24644227
26.402291
25.452239
25.186099
24.338201
24.088002
23.291506
23.016421
22.252512
21.949458
21.212903
20.884379
20.171903
19.82082
19.129575
18.758573
18.086043
17.697482
17.041436
16.637413
15.995871
15.578251
14.949454
14.519894
13.902281
13.462252
12.854434
12.405249
11.805986
11.348815
10.756999
10.292892
9.7075293
9.2374278
8.6576239
8.1823788
7.6073237
7.1277069
6.5566635
6.0733802
5.5056723
5.0193718
4.4543747
3.9656599
3.40279
2.912227
2.3509337
1.8590597
1.2988156
0.80614741
0.24644233
26.404231
25.452853
25.186354
24.338269
24.088027
23.291499
23.01642
22.252512
21.949458
21.212904
20.884379
20.171904
19.820819
19.129575
18.758573
18.086044
17.697481
17.041436
16.637413
15.995871
15.578251
14.949455
14.519893
13.902281
13.462252
12.854434
12.405249
11.805986
11.348815
10.756999
10.292892
9.7075294
9.2374277
8.6576241
8.1823786
7.6073239
7.1277068
6.5566636
6.0733801
5.5056724
5.0193717
4.4543747
3.9656598
3.4027901
2.9122269
2.3509337
1.8590597
1.2988156
0.80614726
0.24644239
26.406625
25.453677
25.18664
24.338349
24.088051
23.291492
23.016419
22.252513
21.949457
21.212905
20.884378
20.171904
19.820819
19.129576
18.758572
18.086044
17.697481
17.041436
16.637412
15.995871
15.57825
14.949455
14.519893
13.902282
13.462252
12.854434
12.405249
11.805986
11.348815
10.756999
10.292892
9.7075296
9.2374275
8.6576242
8.1823785
7.607324
7.1277067
6.5566637
6.07338
5.5056725
5.0193716
4.4543748
3.9656597
3.4027902
2.9122268
2.3509338
1.8590596
1.2988157
0.8061471
0.24644246
26.408917
25.45447
25.186954
24.338438
24.088073
23.291488
23.016419
22.252513
21.949457
21.212905
20.884378
20.171905
19.820818
19.129576
18.758572
18.086045
17.697481
17.041437
16.637412
15.995872
15.57825
14.949455
14.519893
13.902282
13.462252
12.854435
12.405248
11.805986
11.348815
10.756999
10.292891
9.7075297
9.2374274
8.6576243
8.1823784
7.6073241
7.1277065
6.5566638
6.0733799
5.5056727
5.0193715
4.454375
3.9656596
3.4027903
2.9122267
2.3509339
1.8590595
1.2988158
0.80614692
0.24644252
26.411928
25.455458
25.187296
24.33853
24.088095
23.291489
23.016419
22.252514
21.949457
21.212906
20.884378
20.171905
19.820818
19.129577
18.758571
18.086045
17.69748
17.041437
16.637412
15.995872
15.57825
14.949455
14.519893
13.902282
13.462252
12.854435
12.405248
11.805986
11.348814
10.757
10.292891