/*--------------------------------*- C++ -*----------------------------------*\
| =========                 |                                                 |
| \\      /  F ield         | OpenFOAM: The Open Source CFD Toolbox           |
|  \\    /   O peration     | Version:  2312                                  |
|   \\  /    A nd           | Website:  www.openfoam.com                      |
|    \\/     M anipulation  |                                                 |
\*---------------------------------------------------------------------------*/
FoamFile
{
    version     2.0;
    format      ascii;
    arch        "LSB;label=32;scalar=64";
    class       volSymmTensorField;
    location    "5";
    object      sigma_0;
}
// * * * * * * * * * * * * * * * * * * * * * * * * * * * * * * * * * * * * * //

dimensions      [0 2 -2 0 0 0 0];

internalField   nonuniform List<symmTensor> 
4000
(
(-1.4158866 -0.61893769 0 -0.23025023 0 0)
(-2.8600394 -0.30957139 0 -0.00083217723 0 0)
(-1.9743571 -0.25693428 0 -0.00027419283 0 0)
(-2.1392065 -0.2671591 0 -3.2888877e-05 0 0)
(-2.0105856 -0.25868035 0 4.4650637e-05 0 0)
(-2.1016856 -0.26490057 0 -5.4054453e-05 0 0)
(-2.0162779 -0.25904275 0 4.9726821e-05 0 0)
(-2.0938996 -0.26438659 0 -4.7674223e-05 0 0)
(-2.0214807 -0.25939906 0 4.4898032e-05 0 0)
(-2.0891948 -0.26406766 0 -4.2385914e-05 0 0)
(-2.0255838 -0.25968313 0 3.9840681e-05 0 0)
(-2.0852442 -0.26379797 0 -3.7552834e-05 0 0)
(-2.0291656 -0.25993135 0 3.5311152e-05 0 0)
(-2.0817943 -0.26356198 0 -3.327107e-05 0 0)
(-2.0323475 -0.26015166 0 3.1305555e-05 0 0)
(-2.078752 -0.26335371 0 -2.9500612e-05 0 0)
(-2.0351735 -0.26034711 0 2.7774493e-05 0 0)
(-2.0760603 -0.26316939 0 -2.618272e-05 0 0)
(-2.0376826 -0.26052045 0 2.4666129e-05 0 0)
(-2.0736746 -0.263006 0 -2.3264913e-05 0 0)
(-2.0399117 -0.26067428 0 2.1933158e-05 0 0)
(-2.0715569 -0.26286098 0 -2.0701671e-05 0 0)
(-2.0418942 -0.26081093 0 1.9533666e-05 0 0)
(-2.069674 -0.26273209 0 -1.845336e-05 0 0)
(-2.04366 -0.26093249 0 1.7430849e-05 0 0)
(-2.0679968 -0.26261734 0 -1.6485404e-05 0 0)
(-2.0452359 -0.26104082 0 1.559252e-05 0 0)
(-2.0664995 -0.26251497 0 -1.4767651e-05 0 0)
(-2.0466457 -0.26113757 0 1.39906e-05 0 0)
(-2.0651591 -0.26242343 0 -1.3273851e-05 0 0)
(-2.0479106 -0.26122422 0 1.260067e-05 0 0)
(-2.063955 -0.26234132 0 -1.198122e-05 0 0)
(-2.0490498 -0.26130208 0 1.1401572e-05 0 0)
(-2.0628688 -0.26226739 0 -1.0870074e-05 0 0)
(-2.0500803 -0.26137233 0 1.037508e-05 0 0)
(-2.0618841 -0.26220053 0 -9.9235255e-06 0 0)
(-2.0510178 -0.26143604 0 9.50563e-06 0 0)
(-2.0609858 -0.26213971 0 -9.1272363e-06 0 0)
(-2.0518764 -0.26149418 0 8.780104e-06 0 0)
(-2.0601603 -0.26208403 0 -8.4692394e-06 0 0)
(-2.052669 -0.26154761 0 8.1876957e-06 0 0)
(-2.0593951 -0.26203264 0 -7.9398531e-06 0 0)
(-2.0534076 -0.26159715 0 7.7198643e-06 0 0)
(-2.0586785 -0.26198476 0 -7.5319498e-06 0 0)
(-2.054103 -0.26164352 0 7.3703296e-06 0 0)
(-2.0579985 -0.2619396 0 -7.2410686e-06 0 0)
(-2.0547648 -0.26168733 0 7.1449474e-06 0 0)
(-2.0573588 -0.26189721 0 -7.0287439e-06 0 0)
(-2.0554996 -0.26173475 0 7.1993708e-06 0 0)
(-2.05716 -0.26188393 0 -7.0064601e-06 0 0)
(-1.2614872 -0.57100418 0 -0.21694912 0 0)
(-2.5226712 -0.29420144 0 -0.0029345443 0 0)
(-1.8937413 -0.25289296 0 -0.00084578734 0 0)
(-1.9753657 -0.25674465 0 -3.4478853e-05 0 0)
(-1.8684887 -0.24927259 0 3.0285309e-05 0 0)
(-1.9444107 -0.25489296 0 -6.0074129e-05 0 0)
(-1.8712093 -0.24944892 0 5.2969103e-05 0 0)
(-1.9377142 -0.25442427 0 -5.1990946e-05 0 0)
(-1.8755723 -0.24977231 0 4.9200972e-05 0 0)
(-1.933724 -0.25413262 0 -4.6570038e-05 0 0)
(-1.8790888 -0.2500371 0 4.3750395e-05 0 0)
(-1.9303335 -0.25388139 0 -4.1293764e-05 0 0)
(-1.8821588 -0.25026872 0 3.8802864e-05 0 0)
(-1.9273645 -0.25366081 0 -3.6578862e-05 0 0)
(-1.8848873 -0.25047439 0 3.4410128e-05 0 0)
(-1.9247462 -0.25346611 0 -3.243085e-05 0 0)
(-1.8873115 -0.2506569 0 3.053238e-05 0 0)
(-1.9224297 -0.2532938 0 -2.8783368e-05 0 0)
(-1.8894645 -0.2508188 0 2.7117161e-05 0 0)
(-1.9203764 -0.25314105 0 -2.5576566e-05 0 0)
(-1.8913778 -0.25096249 0 2.41139e-05 0 0)
(-1.9185537 -0.25300545 0 -2.2759698e-05 0 0)
(-1.8930798 -0.25109015 0 2.147699e-05 0 0)
(-1.9169328 -0.25288492 0 -2.0289037e-05 0 0)
(-1.8945962 -0.25120374 0 1.9166152e-05 0 0)
(-1.9154888 -0.25277759 0 -1.8126574e-05 0 0)
(-1.8959499 -0.25130498 0 1.7146089e-05 0 0)
(-1.9141995 -0.25268184 0 -1.6239204e-05 0 0)
(-1.8971614 -0.25139542 0 1.5385998e-05 0 0)
(-1.9130449 -0.2525962 0 -1.4598122e-05 0 0)
(-1.8982487 -0.25147643 0 1.3859087e-05 0 0)
(-1.9120075 -0.25251937 0 -1.317834e-05 0 0)
(-1.8992284 -0.25154924 0 1.254216e-05 0 0)
(-1.9110713 -0.25245018 0 -1.1958293e-05 0 0)
(-1.9001152 -0.25161496 0 1.1415266e-05 0 0)
(-1.9102222 -0.25238758 0 -1.091952e-05 0 0)
(-1.9009224 -0.25167457 0 1.0461422e-05 0 0)
(-1.9094472 -0.25233063 0 -1.0046424e-05 0 0)
(-1.9016623 -0.25172899 0 9.6664191e-06 0 0)
(-1.9087346 -0.25227847 0 -9.3261287e-06 0 0)
(-1.9023459 -0.25177903 0 9.018757e-06 0 0)
(-1.9080734 -0.2522303 0 -8.7485039e-06 0 0)
(-1.9029837 -0.25182545 0 8.5097629e-06 0 0)
(-1.9074536 -0.25218541 0 -8.30706e-06 0 0)
(-1.9035851 -0.25186894 0 8.1333832e-06 0 0)
(-1.9068646 -0.25214305 0 -8.0007582e-06 0 0)
(-1.9041573 -0.25190994 0 7.9076539e-06 0 0)
(-1.9063009 -0.25210248 0 -7.7431226e-06 0 0)
(-1.9047641 -0.251951 0 8.2795469e-06 0 0)
(-1.9060432 -0.25208378 0 -7.6098242e-06 0 0)
(-1.1796905 -0.53887811 0 -0.20251114 0 0)
(-2.287692 -0.27919449 0 -0.0033935679 0 0)
(-1.8116972 -0.2484077 0 -0.0012678499 0 0)
(-1.873331 -0.25011174 0 -5.8913276e-05 0 0)
(-1.7757627 -0.24293483 0 1.4227719e-05 0 0)
(-1.8429781 -0.24821241 0 -5.9580785e-05 0 0)
(-1.7770403 -0.24302601 0 5.0267962e-05 0 0)
(-1.8367178 -0.24776094 0 -5.0159932e-05 0 0)
(-1.7808848 -0.24333024 0 4.7706746e-05 0 0)
(-1.8331405 -0.2474861 0 -4.5198469e-05 0 0)
(-1.7840466 -0.24358302 0 4.2441818e-05 0 0)
(-1.8300984 -0.24724725 0 -4.0105087e-05 0 0)
(-1.7868055 -0.2438039 0 3.7656708e-05 0 0)
(-1.8274306 -0.2470371 0 -3.5518819e-05 0 0)
(-1.7892572 -0.24400001 0 3.3400436e-05 0 0)
(-1.8250776 -0.24685158 0 -3.1487625e-05 0 0)
(-1.7914359 -0.24417406 0 2.9638989e-05 0 0)
(-1.8229961 -0.24668738 0 -2.7945209e-05 0 0)
(-1.7933713 -0.24432848 0 2.6324673e-05 0 0)
(-1.8211511 -0.2465418 0 -2.483151e-05 0 0)
(-1.7950915 -0.24446554 0 2.3409605e-05 0 0)
(-1.8195132 -0.24641257 0 -2.2096609e-05 0 0)
(-1.796622 -0.24458734 0 2.0849922e-05 0 0)
(-1.8180567 -0.24629767 0 -1.9697878e-05 0 0)
(-1.7979859 -0.24469572 0 1.8606675e-05 0 0)
(-1.8167591 -0.24619535 0 -1.7598389e-05 0 0)
(-1.7992035 -0.24479233 0 1.6645671e-05 0 0)
(-1.8156003 -0.24610405 0 -1.576601e-05 0 0)
(-1.8002933 -0.24487865 0 1.4937051e-05 0 0)
(-1.8145627 -0.24602237 0 -1.41728e-05 0 0)
(-1.8012717 -0.24495599 0 1.3454849e-05 0 0)
(-1.8136302 -0.24594908 0 -1.2794531e-05 0 0)
(-1.8021533 -0.24502552 0 1.2176595e-05 0 0)
(-1.8127886 -0.24588306 0 -1.1610319e-05 0 0)
(-1.8029515 -0.24508829 0 1.1082991e-05 0 0)
(-1.8120251 -0.24582331 0 -1.0602324e-05 0 0)
(-1.8036782 -0.24514525 0 1.0157663e-05 0 0)
(-1.811328 -0.24576893 0 -9.7555446e-06 0 0)
(-1.8043444 -0.24519726 0 9.3870068e-06 0 0)
(-1.8106868 -0.24571909 0 -9.0577348e-06 0 0)
(-1.8049601 -0.24524512 0 8.7602194e-06 0 0)
(-1.8100916 -0.24567304 0 -8.4995506e-06 0 0)
(-1.8055348 -0.24528953 0 8.2695976e-06 0 0)
(-1.8095334 -0.2456301 0 -8.0759334e-06 0 0)
(-1.806077 -0.24533117 0 7.9102668e-06 0 0)
(-1.8090026 -0.24558956 0 -7.7901173e-06 0 0)
(-1.806593 -0.24537043 0 7.7066987e-06 0 0)
(-1.8084917 -0.24555043 0 -7.5382772e-06 0 0)
(-1.8071324 -0.24540837 0 8.2856245e-06 0 0)
(-1.8082181 -0.24553081 0 -7.7992571e-06 0 0)
(-1.13445 -0.51405494 0 -0.18831918 0 0)
(-2.1014662 -0.26798124 0 -0.0040686039 0 0)
(-1.7275097 -0.24379733 0 -0.0017329634 0 0)
(-1.7745899 -0.24351316 0 -8.6054572e-05 0 0)
(-1.6850317 -0.23661307 0 -1.0830541e-05 0 0)
(-1.7449025 -0.2415416 0 -5.4004201e-05 0 0)
(-1.6849534 -0.23660524 0 4.2716273e-05 0 0)
(-1.7388981 -0.24110143 0 -4.3681313e-05 0 0)
(-1.6883016 -0.23688834 0 4.195009e-05 0 0)
(-1.7356436 -0.24084244 0 -3.9769598e-05 0 0)
(-1.6911581 -0.23712901 0 3.7335115e-05 0 0)
(-1.7328882 -0.24061567 0 -3.533303e-05 0 0)
(-1.6936547 -0.23733917 0 3.3143545e-05 0 0)
(-1.7304685 -0.24041567 0 -3.1284201e-05 0 0)
(-1.6958731 -0.23752574 0 2.9406289e-05 0 0)
(-1.728334 -0.24023906 0 -2.7729469e-05 0 0)
(-1.6978447 -0.23769134 0 2.6097937e-05 0 0)
(-1.7264458 -0.24008273 0 -2.4608746e-05 0 0)
(-1.6995964 -0.23783827 0 2.3180771e-05 0 0)
(-1.7247724 -0.23994413 0 -2.186661e-05 0 0)
(-1.7011535 -0.23796872 0 2.0614281e-05 0 0)
(-1.7232869 -0.23982107 0 -1.9458258e-05 0 0)
(-1.7025391 -0.23808465 0 1.8360406e-05 0 0)
(-1.7219661 -0.23971165 0 -1.7345944e-05 0 0)
(-1.703774 -0.23818783 0 1.6385047e-05 0 0)
(-1.7207894 -0.23961419 0 -1.5497121e-05 0 0)
(-1.7048765 -0.23827983 0 1.4658182e-05 0 0)
(-1.7197387 -0.23952721 0 -1.3883511e-05 0 0)
(-1.7058634 -0.23836204 0 1.3153563e-05 0 0)
(-1.7187978 -0.23944938 0 -1.2480536e-05 0 0)
(-1.7067493 -0.23843571 0 1.1848361e-05 0 0)
(-1.7179524 -0.23937953 0 -1.1266893e-05 0 0)
(-1.7075477 -0.23850196 0 1.0722827e-05 0 0)
(-1.7171895 -0.23931658 0 -1.0224234e-05 0 0)
(-1.7082705 -0.23856179 0 9.7600206e-06 0 0)
(-1.7164974 -0.2392596 0 -9.3369118e-06 0 0)
(-1.7089285 -0.23861611 0 8.9456043e-06 0 0)
(-1.7158657 -0.23920771 0 -8.5918262e-06 0 0)
(-1.7095318 -0.23866574 0 8.2677434e-06 0 0)
(-1.7152846 -0.23916013 0 -7.9783851e-06 0 0)
(-1.7100895 -0.23871143 0 7.7171957e-06 0 0)
(-1.7147453 -0.23911614 0 -7.488722e-06 0 0)
(-1.7106099 -0.23875387 0 7.287701e-06 0 0)
(-1.7142396 -0.23907508 0 -7.1193992e-06 0 0)
(-1.7111009 -0.23879369 0 6.9752868e-06 0 0)
(-1.7137586 -0.2390363 0 -6.8770184e-06 0 0)
(-1.7115682 -0.23883126 0 6.8088683e-06 0 0)
(-1.7132934 -0.23899856 0 -6.6304426e-06 0 0)
(-1.7120485 -0.23886626 0 7.6006116e-06 0 0)
(-1.7130046 -0.23897771 0 -7.1914054e-06 0 0)
(-1.0848187 -0.48411045 0 -0.17096965 0 0)
(-1.9173479 -0.25630288 0 -0.0044767029 0 0)
(-1.6364348 -0.2384344 0 -0.0021175763 0 0)
(-1.6779714 -0.23693046 0 -0.00012695286 0 0)
(-1.5959992 -0.23026945 0 -3.7490827e-05 0 0)
(-1.6498148 -0.23488377 0 -4.8869364e-05 0 0)
(-1.5950565 -0.23017574 0 3.5384168e-05 0 0)
(-1.6440206 -0.23445056 0 -3.7221814e-05 0 0)
(-1.5979514 -0.23043851 0 3.6276512e-05 0 0)
(-1.6410275 -0.23420548 0 -3.4351756e-05 0 0)
(-1.600537 -0.23066792 0 3.2260896e-05 0 0)
(-1.6385195 -0.23398995 0 -3.0576782e-05 0 0)
(-1.6028067 -0.2308682 0 2.8651188e-05 0 0)
(-1.6363161 -0.23379943 0 -2.7065317e-05 0 0)
(-1.6048233 -0.23104595 0 2.5429152e-05 0 0)
(-1.6343719 -0.23363113 0 -2.3985588e-05 0 0)
(-1.6066158 -0.23120372 0 2.2571473e-05 0 0)
(-1.6326522 -0.23348215 0 -2.1284947e-05 0 0)
(-1.6082086 -0.23134374 0 2.0049508e-05 0 0)
(-1.6311281 -0.23335006 0 -1.8912875e-05 0 0)
(-1.6096246 -0.23146806 0 1.782995e-05 0 0)
(-1.6297754 -0.23323276 0 -1.6829732e-05 0 0)
(-1.6108848 -0.23157856 0 1.5880468e-05 0 0)
(-1.6285727 -0.23312845 0 -1.5002644e-05 0 0)
(-1.6120079 -0.23167692 0 1.4171769e-05 0 0)
(-1.6275014 -0.23303554 0 -1.3403426e-05 0 0)
(-1.6130107 -0.23176463 0 1.2677959e-05 0 0)
(-1.6265449 -0.2329526 0 -1.2007629e-05 0 0)
(-1.6139083 -0.23184302 0 1.1376374e-05 0 0)
(-1.6256886 -0.23287838 0 -1.0794014e-05 0 0)
(-1.614714 -0.23191328 0 1.0247288e-05 0 0)
(-1.6249192 -0.23281175 0 -9.7441738e-06 0 0)
(-1.6154401 -0.23197648 0 9.2736405e-06 0 0)
(-1.624225 -0.2327517 0 -8.8422646e-06 0 0)
(-1.6160974 -0.23203357 0 8.4408089e-06 0 0)
(-1.6235954 -0.23269732 0 -8.074793e-06 0 0)
(-1.6166957 -0.23208541 0 7.7364405e-06 0 0)
(-1.6230208 -0.23264778 0 -7.4304923e-06 0 0)
(-1.6172442 -0.2321328 0 7.1503841e-06 0 0)
(-1.6224924 -0.23260234 0 -6.9003168e-06 0 0)
(-1.617751 -0.23217645 0 6.6748088e-06 0 0)
(-1.6220022 -0.23256031 0 -6.477671e-06 0 0)
(-1.6182239 -0.23221701 0 6.304607e-06 0 0)
(-1.6215426 -0.23252105 0 -6.1602486e-06 0 0)
(-1.61867 -0.2322551 0 6.0360994e-06 0 0)
(-1.6211058 -0.23248396 0 -5.9568565e-06 0 0)
(-1.6190943 -0.23229107 0 5.8988339e-06 0 0)
(-1.6206818 -0.23244763 0 -5.7119688e-06 0 0)
(-1.619524 -0.23232362 0 6.840983e-06 0 0)
(-1.620387 -0.23242594 0 -6.5136906e-06 0 0)
(-1.0529798 -0.46382704 0 -0.15942718 0 0)
(-1.746082 -0.24519171 0 -0.004840755 0 0)
(-1.5436545 -0.23257772 0 -0.0024122762 0 0)
(-1.5828948 -0.23032265 0 -0.00018433005 0 0)
(-1.5087389 -0.22390726 0 -6.6147625e-05 0 0)
(-1.5574898 -0.22823308 0 -4.5588179e-05 0 0)
(-1.5074528 -0.22374089 0 2.911088e-05 0 0)
(-1.5519663 -0.22780591 0 -3.1736527e-05 0 0)
(-1.5099491 -0.22398389 0 3.155439e-05 0 0)
(-1.5491984 -0.22757334 0 -2.9773476e-05 0 0)
(-1.5122869 -0.22420248 0 2.7998683e-05 0 0)
(-1.5469097 -0.2273684 0 -2.657084e-05 0 0)
(-1.5143526 -0.22439339 0 2.4870648e-05 0 0)
(-1.5449 -0.22718688 0 -2.3513358e-05 0 0)
(-1.5161886 -0.22456276 0 2.2081658e-05 0 0)
(-1.5431265 -0.22702647 0 -2.083345e-05 0 0)
(-1.5178206 -0.22471312 0 1.9603247e-05 0 0)
(-1.5415578 -0.22688446 0 -1.8486382e-05 0 0)
(-1.5192711 -0.22484656 0 1.7413829e-05 0 0)
(-1.5401677 -0.22675853 0 -1.6425829e-05 0 0)
(-1.5205607 -0.22496506 0 1.5486192e-05 0 0)
(-1.538934 -0.2266467 0 -1.4616466e-05 0 0)
(-1.5217085 -0.2250704 0 1.3792845e-05 0 0)
(-1.5378372 -0.22654725 0 -1.3029507e-05 0 0)
(-1.5227315 -0.22516417 0 1.2308538e-05 0 0)
(-1.5368604 -0.22645866 0 -1.1640426e-05 0 0)
(-1.523645 -0.2252478 0 1.1010847e-05 0 0)
(-1.5359883 -0.22637957 0 -1.0427993e-05 0 0)
(-1.5244626 -0.22532255 0 9.8801095e-06 0 0)
(-1.5352077 -0.22630878 0 -9.3737709e-06 0 0)
(-1.5251965 -0.22538956 0 8.8992041e-06 0 0)
(-1.5345064 -0.22624522 0 -8.4617865e-06 0 0)
(-1.5258578 -0.22544985 0 8.0533235e-06 0 0)
(-1.5338738 -0.22618792 0 -7.6782927e-06 0 0)
(-1.5264564 -0.22550432 0 7.3297802e-06 0 0)
(-1.5333002 -0.22613603 0 -7.0115924e-06 0 0)
(-1.5270012 -0.2255538 0 6.7178706e-06 0 0)
(-1.5327768 -0.22608874 0 -6.4519371e-06 0 0)
(-1.5275005 -0.22559904 0 6.2088238e-06 0 0)
(-1.5322956 -0.22604535 0 -5.9915341e-06 0 0)
(-1.5279618 -0.22564072 0 5.795929e-06 0 0)
(-1.5318493 -0.2260052 0 -5.6247623e-06 0 0)
(-1.5283922 -0.22567948 0 5.4749142e-06 0 0)
(-1.531431 -0.22596768 0 -5.3500399e-06 0 0)
(-1.528798 -0.2257159 0 5.2420219e-06 0 0)
(-1.5310337 -0.22593222 0 -5.1776035e-06 0 0)
(-1.5291838 -0.22575031 0 5.1254873e-06 0 0)
(-1.5306472 -0.22589731 0 -4.9302642e-06 0 0)
(-1.529569 -0.22578071 0 6.1692088e-06 0 0)
(-1.5303519 -0.22587493 0 -5.901458e-06 0 0)
(-1.0124839 -0.43602914 0 -0.14341978 0 0)
(-1.5853711 -0.23423012 0 -0.0050129932 0 0)
(-1.4510568 -0.22623995 0 -0.0025833246 0 0)
(-1.4892308 -0.22369591 0 -0.00026613864 0 0)
(-1.4232003 -0.21753011 0 -0.00010020641 0 0)
(-1.4678048 -0.22158804 0 -4.4846748e-05 0 0)
(-1.4221642 -0.21730295 0 2.331453e-05 0 0)
(-1.4626752 -0.22116589 0 -2.7065209e-05 0 0)
(-1.4243368 -0.21752621 0 2.7531053e-05 0 0)
(-1.4601125 -0.22094448 0 -2.5826416e-05 0 0)
(-1.4264472 -0.21773411 0 2.434679e-05 0 0)
(-1.4580206 -0.22074961 0 -2.3127475e-05 0 0)
(-1.4283273 -0.21791598 0 2.1624156e-05 0 0)
(-1.4561865 -0.22057676 0 -2.0462233e-05 0 0)
(-1.4299996 -0.21807729 0 1.9206184e-05 0 0)
(-1.454568 -0.22042395 0 -1.812583e-05 0 0)
(-1.4314864 -0.21822049 0 1.7053492e-05 0 0)
(-1.4531364 -0.22028866 0 -1.6082375e-05 0 0)
(-1.4328079 -0.2183476 0 1.5149705e-05 0 0)
(-1.4518679 -0.22016868 0 -1.4289357e-05 0 0)
(-1.433983 -0.21846049 0 1.3472802e-05 0 0)
(-1.4507422 -0.22006212 0 -1.2715146e-05 0 0)
(-1.4350289 -0.21856085 0 1.199946e-05 0 0)
(-1.4497416 -0.21996736 0 -1.1334446e-05 0 0)
(-1.4359612 -0.2186502 0 1.07079e-05 0 0)
(-1.4488504 -0.21988292 0 -1.0125871e-05 0 0)
(-1.4367936 -0.21872989 0 9.5786713e-06 0 0)
(-1.448055 -0.21980754 0 -9.070946e-06 0 0)
(-1.4375387 -0.21880113 0 8.5946868e-06 0 0)
(-1.447343 -0.21974007 0 -8.153637e-06 0 0)
(-1.4382076 -0.218865 0 7.7410577e-06 0 0)
(-1.4467035 -0.21967948 0 -7.3600554e-06 0 0)
(-1.4388102 -0.21892248 0 7.0049054e-06 0 0)
(-1.4461267 -0.21962485 0 -6.67825e-06 0 0)
(-1.4393556 -0.21897442 0 6.3751984e-06 0 0)
(-1.4456038 -0.21957535 0 -6.0980575e-06 0 0)
(-1.4398521 -0.21902161 0 5.8426379e-06 0 0)
(-1.4451267 -0.21953025 0 -5.6110188e-06 0 0)
(-1.4403069 -0.21906477 0 5.3996196e-06 0 0)
(-1.4446882 -0.21948884 0 -5.2103918e-06 0 0)
(-1.4407271 -0.21910455 0 5.0403583e-06 0 0)
(-1.4442817 -0.21945051 0 -4.891341e-06 0 0)
(-1.4411189 -0.21914155 0 4.7612318e-06 0 0)
(-1.4439008 -0.21941468 0 -4.6527792e-06 0 0)
(-1.4414884 -0.21917635 0 4.5582804e-06 0 0)
(-1.4435391 -0.21938081 0 -4.5059618e-06 0 0)
(-1.4418395 -0.21920925 0 4.4574257e-06 0 0)
(-1.4431867 -0.21934731 0 -4.2559252e-06 0 0)
(-1.4421851 -0.21923774 0 5.5636086e-06 0 0)
(-1.4428954 -0.21932444 0 -5.3459461e-06 0 0)
(-0.98661178 -0.41716931 0 -0.13272228 0 0)
(-1.4368553 -0.22404919 0 -0.0052780168 0 0)
(-1.360476 -0.21956503 0 -0.0026460516 0 0)
(-1.3969757 -0.21703374 0 -0.00036691844 0 0)
(-1.3392986 -0.21111373 0 -0.00013457829 0 0)
(-1.380607 -0.21493617 0 -4.4847093e-05 0 0)
(-1.3391522 -0.21085826 0 1.8004155e-05 0 0)
(-1.3760934 -0.21452887 0 -2.2926127e-05 0 0)
(-1.341127 -0.21106556 0 2.3947564e-05 0 0)
(-1.3737447 -0.21431848 0 -2.2291759e-05 0 0)
(-1.3430377 -0.21126317 0 2.1087245e-05 0 0)
(-1.3718331 -0.21413327 0 -2.0046747e-05 0 0)
(-1.344749 -0.21143628 0 1.8721807e-05 0 0)
(-1.3701589 -0.21396878 0 -1.7733873e-05 0 0)
(-1.3462724 -0.2115898 0 1.6634718e-05 0 0)
(-1.3686816 -0.21382332 0 -1.5704733e-05 0 0)
(-1.3476269 -0.21172609 0 1.4773205e-05 0 0)
(-1.367375 -0.21369452 0 -1.3932679e-05 0 0)
(-1.3488311 -0.21184708 0 1.3124828e-05 0 0)
(-1.3662174 -0.21358029 0 -1.237883e-05 0 0)
(-1.349902 -0.21195454 0 1.1672144e-05 0 0)
(-1.3651902 -0.21347884 0 -1.101486e-05 0 0)
(-1.3508552 -0.21205008 0 1.0395549e-05 0 0)
(-1.3642771 -0.2133886 0 -9.8185851e-06 0 0)
(-1.3517049 -0.21213515 0 9.2763637e-06 0 0)
(-1.3634641 -0.2133082 0 -8.7714132e-06 0 0)
(-1.3524637 -0.21221103 0 8.2977936e-06 0 0)
(-1.3627384 -0.21323641 0 -7.8573298e-06 0 0)
(-1.3531429 -0.21227888 0 7.4450507e-06 0 0)
(-1.362089 -0.21317214 0 -7.0624449e-06 0 0)
(-1.3537525 -0.21233971 0 6.7052389e-06 0 0)
(-1.3615057 -0.21311442 0 -6.3747294e-06 0 0)
(-1.3543018 -0.21239446 0 6.0672018e-06 0 0)
(-1.3609797 -0.21306238 0 -5.783834e-06 0 0)
(-1.3547989 -0.21244395 0 5.521384e-06 0 0)
(-1.3605029 -0.21301521 0 -5.2809609e-06 0 0)
(-1.3552512 -0.21248892 0 5.059736e-06 0 0)
(-1.360068 -0.21297221 0 -4.8587939e-06 0 0)
(-1.3556657 -0.21253007 0 4.6756837e-06 0 0)
(-1.3596684 -0.21293273 0 -4.5115134e-06 0 0)
(-1.3560485 -0.212568 0 4.3642472e-06 0 0)
(-1.3592979 -0.21289617 0 -4.2349553e-06 0 0)
(-1.3564054 -0.2126033 0 4.1223438e-06 0 0)
(-1.3589509 -0.21286199 0 -4.0283885e-06 0 0)
(-1.3567419 -0.21263652 0 3.9457946e-06 0 0)
(-1.3586217 -0.21282965 0 -3.9037989e-06 0 0)
(-1.3570616 -0.21266796 0 3.857735e-06 0 0)
(-1.3583003 -0.21279757 0 -3.6522824e-06 0 0)
(-1.3573719 -0.21269474 0 4.9950986e-06 0 0)
(-1.3580161 -0.21277437 0 -4.8252462e-06 0 0)
(-0.95826414 -0.39615004 0 -0.121163 0 0)
(-1.3002665 -0.21419253 0 -0.0054460577 0 0)
(-1.2722773 -0.21232765 0 -0.0025445342 0 0)
(-1.3065423 -0.21041186 0 -0.00049822175 0 0)
(-1.2575304 -0.20470989 0 -0.00017170434 0 0)
(-1.295962 -0.2082848 0 -4.5538224e-05 0 0)
(-1.2584564 -0.20440728 0 1.3278811e-05 0 0)
(-1.2921912 -0.20789367 0 -1.9095995e-05 0 0)
(-1.2603288 -0.2046013 0 2.0750946e-05 0 0)
(-1.2900725 -0.20769498 0 -1.9063474e-05 0 0)
(-1.2620716 -0.20478951 0 1.8140738e-05 0 0)
(-1.288331 -0.2075193 0 -1.7247001e-05 0 0)
(-1.2636312 -0.20495428 0 1.6089637e-05 0 0)
(-1.286804 -0.20736293 0 -1.5257431e-05 0 0)
(-1.2650192 -0.2051003 0 1.4301144e-05 0 0)
(-1.285456 -0.20722457 0 -1.3507588e-05 0 0)
(-1.2662533 -0.20522992 0 1.2703626e-05 0 0)
(-1.2842637 -0.20710204 0 -1.1981809e-05 0 0)
(-1.2673504 -0.205345 0 1.1287001e-05 0 0)
(-1.2832074 -0.20699337 0 -1.0644956e-05 0 0)
(-1.2683262 -0.20544722 0 1.0037796e-05 0 0)
(-1.2822701 -0.20689684 0 -9.4717491e-06 0 0)
(-1.2691949 -0.20553811 0 8.9397601e-06 0 0)
(-1.2814372 -0.20681098 0 -8.4428227e-06 0 0)
(-1.2699693 -0.20561904 0 7.9770193e-06 0 0)
(-1.2806955 -0.20673447 0 -7.5421145e-06 0 0)
(-1.2706608 -0.20569124 0 7.1351844e-06 0 0)
(-1.2800336 -0.20666616 0 -6.7558366e-06 0 0)
(-1.2712797 -0.2057558 0 6.4015509e-06 0 0)
(-1.2794412 -0.20660499 0 -6.0720414e-06 0 0)
(-1.2718353 -0.20581369 0 5.7650291e-06 0 0)
(-1.2789093 -0.20655005 0 -5.4803844e-06 0 0)
(-1.2723359 -0.2058658 0 5.2160225e-06 0 0)
(-1.2784297 -0.2065005 0 -4.9719662e-06 0 0)
(-1.2727889 -0.20591292 0 4.7463123e-06 0 0)
(-1.277995 -0.20645559 0 -4.5392232e-06 0 0)
(-1.2732011 -0.20595575 0 4.3489767e-06 0 0)
(-1.2775985 -0.20641464 0 -4.1758688e-06 0 0)
(-1.2735788 -0.20599494 0 4.0183671e-06 0 0)
(-1.2772343 -0.20637702 0 -3.8769072e-06 0 0)
(-1.2739275 -0.20603108 0 3.7502156e-06 0 0)
(-1.2768967 -0.20634218 0 -3.6387595e-06 0 0)
(-1.2742526 -0.20606473 0 3.5418983e-06 0 0)
(-1.2765807 -0.20630958 0 -3.4609488e-06 0 0)
(-1.274559 -0.20609641 0 3.3890336e-06 0 0)
(-1.2762809 -0.20627875 0 -3.3559314e-06 0 0)
(-1.27485 -0.20612642 0 3.3117499e-06 0 0)
(-1.2759881 -0.20624807 0 -3.1045011e-06 0 0)
(-1.2751288 -0.20615167 0 4.4538433e-06 0 0)
(-1.2757132 -0.20622468 0 -4.3336383e-06 0 0)
(-0.93353254 -0.37275684 0 -0.10732595 0 0)
(-1.1785312 -0.20478427 0 -0.005409774 0 0)
(-1.1843827 -0.20514832 0 -0.0025177418 0 0)
(-1.2215687 -0.20362023 0 -0.00051862312 0 0)
(-1.1786762 -0.19824318 0 -0.00018283057 0 0)
(-1.2142744 -0.20163556 0 -4.2607991e-05 0 0)
(-1.1802604 -0.19795481 0 9.4133712e-06 0 0)
(-1.2110255 -0.20126365 0 -1.5646179e-05 0 0)
(-1.1819889 -0.19813504 0 1.781723e-05 0 0)
(-1.2090941 -0.20107464 0 -1.6139813e-05 0 0)
(-1.1835687 -0.19831347 0 1.5458078e-05 0 0)
(-1.2075037 -0.20090777 0 -1.4699655e-05 0 0)
(-1.1849874 -0.19847006 0 1.3694737e-05 0 0)
(-1.2061106 -0.20075918 0 -1.3003909e-05 0 0)
(-1.1862512 -0.19860883 0 1.2177575e-05 0 0)
(-1.2048809 -0.20062767 0 -1.1508279e-05 0 0)
(-1.187375 -0.19873201 0 1.0820167e-05 0 0)
(-1.2037934 -0.2005112 0 -1.0206552e-05 0 0)
(-1.1883742 -0.19884138 0 9.6144093e-06 0 0)
(-1.20283 -0.20040788 0 -9.0671141e-06 0 0)
(-1.1892631 -0.19893854 0 8.5503678e-06 0 0)
(-1.2019752 -0.20031611 0 -8.06747e-06 0 0)
(-1.1900543 -0.19902494 0 7.6148263e-06 0 0)
(-1.2012156 -0.20023448 0 -7.1908116e-06 0 0)
(-1.1907598 -0.19910187 0 6.7944571e-06 0 0)
(-1.2005393 -0.20016173 0 -6.423372e-06 0 0)
(-1.1913897 -0.19917051 0 6.0770569e-06 0 0)
(-1.1999358 -0.20009677 0 -5.7533852e-06 0 0)
(-1.1919536 -0.1992319 0 5.4518147e-06 0 0)
(-1.1993958 -0.20003861 0 -5.1706684e-06 0 0)
(-1.1924597 -0.19928696 0 4.9092826e-06 0 0)
(-1.198911 -0.19998635 0 -4.6664073e-06 0 0)
(-1.1929157 -0.19933652 0 4.4412823e-06 0 0)
(-1.1984738 -0.19993921 0 -4.2330195e-06 0 0)
(-1.1933284 -0.19938134 0 4.0408078e-06 0 0)
(-1.1980776 -0.19989648 0 -3.8640603e-06 0 0)
(-1.1937039 -0.19942209 0 3.7019595e-06 0 0)
(-1.1977164 -0.19985751 0 -3.554174e-06 0 0)
(-1.1940478 -0.19945939 0 3.4199231e-06 0 0)
(-1.1973846 -0.19982171 0 -3.2991038e-06 0 0)
(-1.1943654 -0.1994938 0 3.1910643e-06 0 0)
(-1.1970771 -0.19978853 0 -3.0957847e-06 0 0)
(-1.1946614 -0.19952585 0 3.0131515e-06 0 0)
(-1.1967893 -0.19975747 0 -2.9439149e-06 0 0)
(-1.1949403 -0.19955603 0 2.8816372e-06 0 0)
(-1.1965165 -0.1997281 0 -2.8561781e-06 0 0)
(-1.1952053 -0.19958466 0 2.8136041e-06 0 0)
(-1.1962497 -0.19969879 0 -2.6064949e-06 0 0)
(-1.1954557 -0.19960851 0 3.9378731e-06 0 0)
(-1.1959859 -0.19967536 0 -3.870867e-06 0 0)
(-0.91743048 -0.35655411 0 -0.098254388 0 0)
(-1.0729882 -0.1955295 0 -0.0052020309 0 0)
(-1.0977734 -0.19794861 0 -0.0025148644 0 0)
(-1.1420045 -0.19664538 0 -0.00042223005 0 0)
(-1.102552 -0.1916597 0 -0.00015604197 0 0)
(-1.1353847 -0.19495702 0 -2.9771767e-05 0 0)
(-1.1044828 -0.19148571 0 8.7491653e-06 0 0)
(-1.1325291 -0.19463234 0 -1.1723536e-05 0 0)
(-1.1060947 -0.19166432 0 1.5373983e-05 0 0)
(-1.1307843 -0.19445635 0 -1.3408715e-05 0 0)
(-1.1075351 -0.19183473 0 1.3034642e-05 0 0)
(-1.1293376 -0.19429847 0 -1.2370002e-05 0 0)
(-1.1088271 -0.19198362 0 1.151389e-05 0 0)
(-1.1280685 -0.19415746 0 -1.0948421e-05 0 0)
(-1.1099775 -0.19211543 0 1.0241664e-05 0 0)
(-1.1269479 -0.19403256 0 -9.6853541e-06 0 0)
(-1.1110003 -0.19223241 0 9.1028067e-06 0 0)
(-1.1259566 -0.19392193 0 -8.5879643e-06 0 0)
(-1.1119098 -0.19233628 0 8.0892518e-06 0 0)
(-1.1250786 -0.19382379 0 -7.628495e-06 0 0)
(-1.1127188 -0.19242855 0 7.1940323e-06 0 0)
(-1.1242996 -0.19373661 0 -6.7870748e-06 0 0)
(-1.1134391 -0.19251061 0 6.4066546e-06 0 0)
(-1.1236074 -0.19365906 0 -6.049232e-06 0 0)
(-1.1140812 -0.19258369 0 5.7161037e-06 0 0)
(-1.1229912 -0.19358995 0 -5.4032892e-06 0 0)
(-1.1146547 -0.19264889 0 5.1121655e-06 0 0)
(-1.1224414 -0.19352823 0 -4.8393209e-06 0 0)
(-1.1151681 -0.19270721 0 4.5857534e-06 0 0)
(-1.1219494 -0.19347296 0 -4.3487513e-06 0 0)
(-1.1156288 -0.19275952 0 4.1289159e-06 0 0)
(-1.1215077 -0.1934233 0 -3.9241597e-06 0 0)
(-1.116044 -0.19280662 0 3.7347657e-06 0 0)
(-1.1211096 -0.1933785 0 -3.5591618e-06 0 0)
(-1.1164196 -0.19284922 0 3.3974015e-06 0 0)
(-1.1207488 -0.19333788 0 -3.2483308e-06 0 0)
(-1.1167614 -0.19288796 0 3.111852e-06 0 0)
(-1.1204198 -0.19330082 0 -2.9871545e-06 0 0)
(-1.1170745 -0.19292343 0 2.8740577e-06 0 0)
(-1.1201177 -0.19326676 0 -2.7720424e-06 0 0)
(-1.1173635 -0.19295617 0 2.6809517e-06 0 0)
(-1.1198378 -0.1932352 0 -2.6003851e-06 0 0)
(-1.1176328 -0.19298666 0 2.5306419e-06 0 0)
(-1.1195759 -0.19320564 0 -2.4719967e-06 0 0)
(-1.1178865 -0.19301539 0 2.4184667e-06 0 0)
(-1.1193279 -0.19317768 0 -2.3995668e-06 0 0)
(-1.1181276 -0.19304268 0 2.3585711e-06 0 0)
(-1.1190851 -0.19314973 0 -2.1533921e-06 0 0)
(-1.1183524 -0.19306526 0 3.445958e-06 0 0)
(-1.1188334 -0.19312637 0 -3.4366121e-06 0 0)
(-0.90131533 -0.3343905 0 -0.084982155 0 0)
(-0.9885446 -0.18691332 0 -0.0044628711 0 0)
(-1.0131899 -0.19021276 0 -0.0026477116 0 0)
(-1.0624588 -0.18989125 0 -0.00047377944 0 0)
(-1.0286069 -0.18519588 0 -0.00016117668 0 0)
(-1.059043 -0.18831864 0 -2.6498047e-05 0 0)
(-1.0311451 -0.18502739 0 5.9408517e-06 0 0)
(-1.0567115 -0.18800889 0 -8.7553272e-06 0 0)
(-1.032675 -0.18519272 0 1.2972188e-05 0 0)
(-1.0551421 -0.18784132 0 -1.0961938e-05 0 0)
(-1.0339859 -0.18535389 0 1.0806499e-05 0 0)
(-1.0538256 -0.18769151 0 -1.0243617e-05 0 0)
(-1.0351603 -0.18549513 0 9.5191349e-06 0 0)
(-1.05267 -0.18755771 0 -9.0694414e-06 0 0)
(-1.0362062 -0.18562019 0 8.4714773e-06 0 0)
(-1.0516496 -0.18743919 0 -8.0187836e-06 0 0)
(-1.0371361 -0.18573118 0 7.5324433e-06 0 0)
(-1.0507471 -0.18733419 0 -7.1081524e-06 0 0)
(-1.0379631 -0.18582973 0 6.6946268e-06 0 0)
(-1.0499476 -0.18724104 0 -6.3131853e-06 0 0)
(-1.0386988 -0.18591729 0 5.9537762e-06 0 0)
(-1.0492384 -0.1871583 0 -5.6164029e-06 0 0)
(-1.0393538 -0.18599516 0 5.3018798e-06 0 0)
(-1.0486083 -0.18708469 0 -5.005462e-06 0 0)
(-1.0399378 -0.18606452 0 4.7300347e-06 0 0)
(-1.0480473 -0.18701909 0 -4.4705907e-06 0 0)
(-1.0404594 -0.18612641 0 4.229844e-06 0 0)
(-1.0475469 -0.1869605 0 -4.0035438e-06 0 0)
(-1.0409262 -0.18618176 0 3.7937977e-06 0 0)
(-1.0470991 -0.18690803 0 -3.5972127e-06 0 0)
(-1.0413453 -0.18623142 0 3.4153112e-06 0 0)
(-1.0466972 -0.18686087 0 -3.2454493e-06 0 0)
(-1.0417228 -0.18627614 0 3.0886775e-06 0 0)
(-1.0463349 -0.18681833 0 -2.9429638e-06 0 0)
(-1.0420645 -0.1863166 0 2.8090038e-06 0 0)
(-1.0460067 -0.18677975 0 -2.6852573e-06 0 0)
(-1.0423753 -0.18635339 0 2.5721653e-06 0 0)
(-1.0457074 -0.18674454 0 -2.4685856e-06 0 0)
(-1.04266 -0.18638709 0 2.3747889e-06 0 0)
(-1.0454326 -0.18671218 0 -2.2899616e-06 0 0)
(-1.0429227 -0.1864182 0 2.2143186e-06 0 0)
(-1.0451781 -0.18668218 0 -2.1471841e-06 0 0)
(-1.0431675 -0.18644719 0 2.0891604e-06 0 0)
(-1.04494 -0.18665407 0 -2.040141e-06 0 0)
(-1.0433982 -0.18647451 0 1.9945996e-06 0 0)
(-1.0447146 -0.18662748 0 -1.9813245e-06 0 0)
(-1.0436173 -0.1865005 0 1.9420564e-06 0 0)
(-1.0444939 -0.18660087 0 -1.7404722e-06 0 0)
(-1.043819 -0.1865219 0 2.9766328e-06 0 0)
(-1.0442551 -0.18657767 0 -3.0299409e-06 0 0)
(-0.88929435 -0.32132512 0 -0.078025782 0 0)
(-0.90976886 -0.17883925 0 -0.0041362022 0 0)
(-0.93763139 -0.18268669 0 -0.0024440797 0 0)
(-0.98640689 -0.18290543 0 -0.00042278976 0 0)
(-0.95722383 -0.17863346 0 -0.00013796073 0 0)
(-0.98526759 -0.1816432 0 -1.5681981e-05 0 0)
(-0.96017189 -0.1785488 0 5.7962017e-06 0 0)
(-0.98349896 -0.1813813 0 -5.2887609e-06 0 0)
(-0.96170233 -0.17871561 0 1.1006934e-05 0 0)
(-0.98213886 -0.18122755 0 -8.6472063e-06 0 0)
(-0.96291994 -0.17887024 0 8.7879162e-06 0 0)
(-0.98095528 -0.18108648 0 -8.286609e-06 0 0)
(-0.96399225 -0.17900452 0 7.6931546e-06 0 0)
(-0.97990725 -0.18095981 0 -7.3460674e-06 0 0)
(-0.9649433 -0.17912315 0 6.8488948e-06 0 0)
(-0.97897989 -0.18084747 0 -6.4909476e-06 0 0)
(-0.96578814 -0.17922837 0 6.0927073e-06 0 0)
(-0.97815925 -0.18074792 0 -5.7516002e-06 0 0)
(-0.96653921 -0.1793218 0 5.4159597e-06 0 0)
(-0.97743228 -0.1806596 0 -5.1074224e-06 0 0)
(-0.96720738 -0.17940481 0 4.816635e-06 0 0)
(-0.97678743 -0.18058114 0 -4.5432141e-06 0 0)
(-0.96780234 -0.17947864 0 4.2889552e-06 0 0)
(-0.97621452 -0.18051133 0 -4.0485923e-06 0 0)
(-0.96833279 -0.1795444 0 3.8259459e-06 0 0)
(-0.97570457 -0.18044912 0 -3.6155307e-06 0 0)
(-0.96880656 -0.17960308 0 3.4208745e-06 0 0)
(-0.97524964 -0.18039355 0 -3.2373227e-06 0 0)
(-0.96923064 -0.17965558 0 3.0676757e-06 0 0)
(-0.97484267 -0.18034378 0 -2.9082039e-06 0 0)
(-0.96961132 -0.17970268 0 2.7610181e-06 0 0)
(-0.97447736 -0.18029905 0 -2.623192e-06 0 0)
(-0.96995427 -0.1797451 0 2.4962765e-06 0 0)
(-0.97414809 -0.18025869 0 -2.3779989e-06 0 0)
(-0.97026458 -0.17978348 0 2.2694817e-06 0 0)
(-0.97384981 -0.18022208 0 -2.1689748e-06 0 0)
(-0.97054689 -0.1798184 0 2.0772835e-06 0 0)
(-0.97357793 -0.18018867 0 -1.9930771e-06 0 0)
(-0.97080543 -0.17985038 0 1.9169351e-06 0 0)
(-0.9733283 -0.18015794 0 -1.8478678e-06 0 0)
(-0.97104405 -0.17987991 0 1.7863436e-06 0 0)
(-0.97309712 -0.18012945 0 -1.7315145e-06 0 0)
(-0.97126633 -0.17990744 0 1.6841798e-06 0 0)