/*--------------------------------*- C++ -*----------------------------------*\
| =========                 |                                                 |
| \\      /  F ield         | OpenFOAM: The Open Source CFD Toolbox           |
|  \\    /   O peration     | Version:  2312                                  |
|   \\  /    A nd           | Website:  www.openfoam.com                      |
|    \\/     M anipulation  |                                                 |
\*---------------------------------------------------------------------------*/
FoamFile
{
    version     2.0;
    format      ascii;
    arch        "LSB;label=32;scalar=64";
    class       volSymmTensorField;
    location    "5";
    object      sigma;
}
// * * * * * * * * * * * * * * * * * * * * * * * * * * * * * * * * * * * * * //

dimensions      [0 2 -2 0 0 0 0];

internalField   nonuniform List<symmTensor> 
4000
(
(-1.4183006 -0.61972506 0 -0.23043445 0 0)
(-2.8598538 -0.30956987 0 -0.00083767666 0 0)
(-1.9743501 -0.25693361 0 -0.00027415664 0 0)
(-2.1391843 -0.26715733 0 -3.2843875e-05 0 0)
(-2.0105889 -0.25868091 0 4.4643395e-05 0 0)
(-2.1016779 -0.26489978 0 -5.4045402e-05 0 0)
(-2.0162811 -0.25904318 0 4.9724046e-05 0 0)
(-2.0938977 -0.26438628 0 -4.7673264e-05 0 0)
(-2.0214812 -0.25939922 0 4.4899049e-05 0 0)
(-2.0891953 -0.2640676 0 -4.2387972e-05 0 0)
(-2.0255827 -0.25968312 0 3.9843336e-05 0 0)
(-2.0852458 -0.26379803 0 -3.7555715e-05 0 0)
(-2.029164 -0.25993127 0 3.5313989e-05 0 0)
(-2.0817958 -0.26356207 0 -3.3273704e-05 0 0)
(-2.0323461 -0.26015156 0 3.1307879e-05 0 0)
(-2.0787532 -0.2633538 0 -2.9502586e-05 0 0)
(-2.0351724 -0.26034703 0 2.7776105e-05 0 0)
(-2.0760611 -0.26316946 0 -2.6183987e-05 0 0)
(-2.037682 -0.2605204 0 2.4667081e-05 0 0)
(-2.073675 -0.26300604 0 -2.3265588e-05 0 0)
(-2.0399114 -0.26067425 0 2.1933597e-05 0 0)
(-2.071557 -0.262861 0 -2.0701913e-05 0 0)
(-2.0418941 -0.26081092 0 1.953375e-05 0 0)
(-2.069674 -0.26273209 0 -1.8453316e-05 0 0)
(-2.0436601 -0.26093249 0 1.7430708e-05 0 0)
(-2.0679967 -0.26261733 0 -1.6485187e-05 0 0)
(-2.0452361 -0.26104083 0 1.5592247e-05 0 0)
(-2.0664993 -0.26251496 0 -1.4767337e-05 0 0)
(-2.0466459 -0.26113758 0 1.3990257e-05 0 0)
(-2.0651588 -0.26242341 0 -1.3273487e-05 0 0)
(-2.0479109 -0.26122423 0 1.2600293e-05 0 0)
(-2.0639547 -0.2623413 0 -1.1980833e-05 0 0)
(-2.04905 -0.26130209 0 1.140118e-05 0 0)
(-2.0628686 -0.26226738 0 -1.0869679e-05 0 0)
(-2.0500805 -0.26137235 0 1.0374683e-05 0 0)
(-2.0618839 -0.26220051 0 -9.9231267e-06 0 0)
(-2.051018 -0.26143606 0 9.5052309e-06 0 0)
(-2.0609856 -0.2621397 0 -9.1268366e-06 0 0)
(-2.0518766 -0.26149419 0 8.7797045e-06 0 0)
(-2.0601602 -0.26208402 0 -8.4688396e-06 0 0)
(-2.0526691 -0.26154762 0 8.1872959e-06 0 0)
(-2.059395 -0.26203263 0 -7.9394529e-06 0 0)
(-2.0534077 -0.26159716 0 7.719464e-06 0 0)
(-2.0586784 -0.26198475 0 -7.531549e-06 0 0)
(-2.054103 -0.26164353 0 7.3699287e-06 0 0)
(-2.0579984 -0.26193959 0 -7.240667e-06 0 0)
(-2.0547649 -0.26168734 0 7.1445449e-06 0 0)
(-2.0573587 -0.26189721 0 -7.0283437e-06 0 0)
(-2.0554996 -0.26173475 0 7.1989582e-06 0 0)
(-2.05716 -0.26188392 0 -7.0060504e-06 0 0)
(-1.2587609 -0.56983164 0 -0.21646068 0 0)
(-2.5226153 -0.29419279 0 -0.0029242969 0 0)
(-1.8937594 -0.25289627 0 -0.00084580398 0 0)
(-1.9753498 -0.25674341 0 -3.4508655e-05 0 0)
(-1.8684883 -0.24927286 0 3.027802e-05 0 0)
(-1.9444058 -0.2548924 0 -6.0063228e-05 0 0)
(-1.8712102 -0.24944913 0 5.2969533e-05 0 0)
(-1.9377138 -0.25442413 0 -5.1991042e-05 0 0)
(-1.8755716 -0.24977234 0 4.9203463e-05 0 0)
(-1.9337252 -0.25413266 0 -4.6573173e-05 0 0)
(-1.8790874 -0.25003702 0 4.3753922e-05 0 0)
(-1.930335 -0.25388148 0 -4.1297296e-05 0 0)
(-1.8821574 -0.25026861 0 3.8806164e-05 0 0)
(-1.9273659 -0.25366091 0 -3.6581811e-05 0 0)
(-1.8848862 -0.25047429 0 3.4412647e-05 0 0)
(-1.9247471 -0.25346619 0 -3.2432928e-05 0 0)
(-1.8873108 -0.25065683 0 3.053403e-05 0 0)
(-1.9224303 -0.25329385 0 -2.8784625e-05 0 0)
(-1.8894641 -0.25081876 0 2.7118072e-05 0 0)
(-1.9203767 -0.25314107 0 -2.5577179e-05 0 0)
(-1.8913776 -0.25096247 0 2.4114267e-05 0 0)
(-1.9185537 -0.25300546 0 -2.2759862e-05 0 0)
(-1.8930798 -0.25109015 0 2.1476996e-05 0 0)
(-1.9169327 -0.25288491 0 -2.0288916e-05 0 0)
(-1.8945964 -0.25120375 0 1.9165937e-05 0 0)
(-1.9154887 -0.25277758 0 -1.8126287e-05 0 0)
(-1.8959501 -0.25130499 0 1.7145752e-05 0 0)
(-1.9141993 -0.25268183 0 -1.6238829e-05 0 0)
(-1.8971616 -0.25139543 0 1.5385598e-05 0 0)
(-1.9130447 -0.25259618 0 -1.4597704e-05 0 0)
(-1.8982489 -0.25147645 0 1.3858657e-05 0 0)
(-1.9120073 -0.25251935 0 -1.3177903e-05 0 0)
(-1.8992286 -0.25154926 0 1.2541718e-05 0 0)
(-1.9110712 -0.25245016 0 -1.1957849e-05 0 0)
(-1.9001154 -0.25161497 0 1.1414821e-05 0 0)
(-1.9102221 -0.25238757 0 -1.0919074e-05 0 0)
(-1.9009226 -0.25167458 0 1.0460976e-05 0 0)
(-1.9094471 -0.25233062 0 -1.0045977e-05 0 0)
(-1.9016624 -0.251729 0 9.665972e-06 0 0)
(-1.9087344 -0.25227846 0 -9.325681e-06 0 0)
(-1.902346 -0.25177904 0 9.0183091e-06 0 0)
(-1.9080733 -0.2522303 0 -8.7480552e-06 0 0)
(-1.9029838 -0.25182546 0 8.5093139e-06 0 0)
(-1.9074535 -0.2521854 0 -8.3066101e-06 0 0)
(-1.9035852 -0.25186895 0 8.1329327e-06 0 0)
(-1.9068645 -0.25214304 0 -8.0003063e-06 0 0)
(-1.9041573 -0.25190994 0 7.9072e-06 0 0)
(-1.9063008 -0.25210247 0 -7.7426743e-06 0 0)
(-1.9047641 -0.251951 0 8.279064e-06 0 0)
(-1.9060431 -0.25208377 0 -7.6093634e-06 0 0)
(-1.1830116 -0.54066684 0 -0.20351482 0 0)
(-2.2877325 -0.27922927 0 -0.0034117723 0 0)
(-1.811626 -0.24840373 0 -0.0012681248 0 0)
(-1.8733149 -0.25011032 0 -5.8843115e-05 0 0)
(-1.7757609 -0.24293492 0 1.4237713e-05 0 0)
(-1.8429749 -0.24821198 0 -5.9567856e-05 0 0)
(-1.7770401 -0.24302609 0 5.027126e-05 0 0)
(-1.8367183 -0.2477609 0 -5.0160884e-05 0 0)
(-1.7808836 -0.2433302 0 4.7710199e-05 0 0)
(-1.833142 -0.24748618 0 -4.5202113e-05 0 0)
(-1.784045 -0.24358291 0 4.2445666e-05 0 0)
(-1.8301 -0.24724737 0 -4.0108762e-05 0 0)
(-1.7868041 -0.24380379 0 3.7660029e-05 0 0)
(-1.8274318 -0.2470372 0 -3.5521711e-05 0 0)
(-1.7892562 -0.24399993 0 3.3402849e-05 0 0)
(-1.8250784 -0.24685165 0 -3.1489573e-05 0 0)
(-1.7914353 -0.24417401 0 2.9640502e-05 0 0)
(-1.8229965 -0.24668742 0 -2.7946332e-05 0 0)
(-1.7933711 -0.24432845 0 2.6325462e-05 0 0)
(-1.8211512 -0.24654182 0 -2.4832015e-05 0 0)
(-1.7950915 -0.24446553 0 2.3409881e-05 0 0)
(-1.8195131 -0.24641257 0 -2.2096698e-05 0 0)
(-1.7966221 -0.24458734 0 2.0849869e-05 0 0)
(-1.8180566 -0.24629766 0 -1.9697713e-05 0 0)
(-1.797986 -0.24469573 0 1.8606428e-05 0 0)
(-1.8167589 -0.24619534 0 -1.7598079e-05 0 0)
(-1.7992037 -0.24479235 0 1.6645319e-05 0 0)
(-1.8156001 -0.24610404 0 -1.5765627e-05 0 0)
(-1.8002935 -0.24487867 0 1.4936647e-05 0 0)
(-1.8145625 -0.24602236 0 -1.4172382e-05 0 0)
(-1.8012719 -0.24495601 0 1.3454423e-05 0 0)
(-1.81363 -0.24594906 0 -1.2794099e-05 0 0)
(-1.8021535 -0.24502553 0 1.217616e-05 0 0)
(-1.8127884 -0.24588305 0 -1.1609882e-05 0 0)
(-1.8029516 -0.2450883 0 1.1082554e-05 0 0)
(-1.8120249 -0.2458233 0 -1.0601886e-05 0 0)
(-1.8036783 -0.24514526 0 1.0157225e-05 0 0)
(-1.8113279 -0.24576892 0 -9.7551058e-06 0 0)
(-1.8043445 -0.24519727 0 9.386568e-06 0 0)
(-1.8106867 -0.24571908 0 -9.0572951e-06 0 0)
(-1.8049602 -0.24524513 0 8.7597795e-06 0 0)
(-1.8100915 -0.24567303 0 -8.4991095e-06 0 0)
(-1.8055349 -0.24528954 0 8.2691559e-06 0 0)
(-1.8095334 -0.24563009 0 -8.0754904e-06 0 0)
(-1.806077 -0.24533118 0 7.909823e-06 0 0)
(-1.8090026 -0.24558955 0 -7.7896713e-06 0 0)
(-1.806593 -0.24537043 0 7.7062502e-06 0 0)
(-1.8084916 -0.24555043 0 -7.537835e-06 0 0)
(-1.8071325 -0.24540837 0 8.2851353e-06 0 0)
(-1.8082181 -0.24553081 0 -7.7987743e-06 0 0)
(-1.1287674 -0.51070307 0 -0.18634086 0 0)
(-2.1012662 -0.26791344 0 -0.0040345764 0 0)
(-1.7275725 -0.24380144 0 -0.001732004 0 0)
(-1.7745806 -0.24351252 0 -8.6065793e-05 0 0)
(-1.6850293 -0.2366131 0 -1.0823646e-05 0 0)
(-1.7449005 -0.24154131 0 -5.3992642e-05 0 0)
(-1.6849524 -0.23660522 0 4.2723254e-05 0 0)
(-1.7388991 -0.24110147 0 -4.3683178e-05 0 0)
(-1.6883002 -0.23688825 0 4.1954402e-05 0 0)
(-1.7356451 -0.24084255 0 -3.9773476e-05 0 0)
(-1.6911566 -0.23712889 0 3.7338915e-05 0 0)
(-1.7328896 -0.24061579 0 -3.5336444e-05 0 0)
(-1.6936536 -0.23733907 0 3.3146491e-05 0 0)
(-1.7304695 -0.24041576 0 -3.128667e-05 0 0)
(-1.6958723 -0.23752566 0 2.9408274e-05 0 0)
(-1.7283346 -0.24023912 0 -2.7731013e-05 0 0)
(-1.6978443 -0.23769129 0 2.6099088e-05 0 0)
(-1.7264461 -0.24008276 0 -2.4609559e-05 0 0)
(-1.6995963 -0.23783825 0 2.3181303e-05 0 0)
(-1.7247725 -0.23994414 0 -2.1866911e-05 0 0)
(-1.7011536 -0.23796872 0 2.06144e-05 0 0)
(-1.7232868 -0.23982107 0 -1.9458234e-05 0 0)
(-1.7025393 -0.23808466 0 1.8360274e-05 0 0)
(-1.7219659 -0.23971164 0 -1.734573e-05 0 0)
(-1.7037741 -0.23818784 0 1.6384776e-05 0 0)
(-1.7207892 -0.23961417 0 -1.5496806e-05 0 0)
(-1.7048767 -0.23827984 0 1.4657839e-05 0 0)
(-1.7197385 -0.23952719 0 -1.3883149e-05 0 0)
(-1.7058636 -0.23836205 0 1.3153189e-05 0 0)
(-1.7187976 -0.23944937 0 -1.2480153e-05 0 0)
(-1.7067495 -0.23843572 0 1.1847974e-05 0 0)
(-1.7179522 -0.23937951 0 -1.1266503e-05 0 0)
(-1.7075479 -0.23850197 0 1.0722436e-05 0 0)
(-1.7171893 -0.23931657 0 -1.0223842e-05 0 0)
(-1.7082706 -0.2385618 0 9.7596289e-06 0 0)
(-1.7164973 -0.23925958 0 -9.3365194e-06 0 0)
(-1.7089287 -0.23861612 0 8.9452121e-06 0 0)
(-1.7158656 -0.2392077 0 -8.5914332e-06 0 0)
(-1.709532 -0.23866575 0 8.2673503e-06 0 0)
(-1.7152845 -0.23916012 0 -7.9779908e-06 0 0)
(-1.7100896 -0.23871144 0 7.7168009e-06 0 0)
(-1.7147452 -0.23911613 0 -7.4883259e-06 0 0)
(-1.71061 -0.23875388 0 7.287304e-06 0 0)
(-1.7142395 -0.23907508 0 -7.1190006e-06 0 0)
(-1.711101 -0.2387937 0 6.9748874e-06 0 0)
(-1.7137586 -0.2390363 0 -6.8766163e-06 0 0)
(-1.7115683 -0.23883126 0 6.8084633e-06 0 0)
(-1.7132933 -0.23899856 0 -6.6300457e-06 0 0)
(-1.7120485 -0.23886627 0 7.600154e-06 0 0)
(-1.7130046 -0.23897771 0 -7.1909448e-06 0 0)
(-1.0917837 -0.48849964 0 -0.17361118 0 0)
(-1.9177299 -0.25641524 0 -0.0045249279 0 0)
(-1.6363422 -0.23843175 0 -0.0021191814 0 0)
(-1.6779577 -0.23692933 0 -0.0001269534 0 0)
(-1.5959967 -0.23026934 0 -3.7463695e-05 0 0)
(-1.6498139 -0.2348836 0 -4.8857043e-05 0 0)
(-1.595055 -0.23017564 0 3.5393784e-05 0 0)
(-1.6440219 -0.23445064 0 -3.7224183e-05 0 0)
(-1.5979498 -0.23043839 0 3.62812e-05 0 0)
(-1.641029 -0.23420561 0 -3.4355497e-05 0 0)
(-1.6005357 -0.2306678 0 3.2264385e-05 0 0)
(-1.6385208 -0.23399006 0 -3.0579753e-05 0 0)
(-1.6028057 -0.23086811 0 2.8653643e-05 0 0)
(-1.6363169 -0.23379951 0 -2.7067296e-05 0 0)
(-1.6048227 -0.23104588 0 2.5430677e-05 0 0)
(-1.6343723 -0.23363118 0 -2.3986725e-05 0 0)
(-1.6066155 -0.23120369 0 2.2572274e-05 0 0)
(-1.6326523 -0.23348217 0 -2.1285472e-05 0 0)
(-1.6082085 -0.23134373 0 2.0049811e-05 0 0)
(-1.6311281 -0.23335006 0 -1.8913e-05 0 0)
(-1.6096247 -0.23146807 0 1.7829941e-05 0 0)
(-1.6297753 -0.23323275 0 -1.6829619e-05 0 0)
(-1.6108849 -0.23157857 0 1.5880281e-05 0 0)
(-1.6285726 -0.23312844 0 -1.5002402e-05 0 0)
(-1.6120081 -0.23167694 0 1.4171489e-05 0 0)
(-1.6275012 -0.23303552 0 -1.340312e-05 0 0)
(-1.6130109 -0.23176464 0 1.2677637e-05 0 0)
(-1.6265447 -0.23295258 0 -1.2007297e-05 0 0)
(-1.6139084 -0.23184303 0 1.1376035e-05 0 0)
(-1.6256884 -0.23287837 0 -1.0793671e-05 0 0)
(-1.6147142 -0.23191329 0 1.0246944e-05 0 0)
(-1.624919 -0.23281174 0 -9.743829e-06 0 0)
(-1.6154403 -0.23197649 0 9.2732959e-06 0 0)
(-1.6242249 -0.23275169 0 -8.8419196e-06 0 0)
(-1.6160975 -0.23203358 0 8.4404642e-06 0 0)
(-1.6235953 -0.23269731 0 -8.0744477e-06 0 0)
(-1.6166958 -0.23208543 0 7.7360952e-06 0 0)
(-1.6230207 -0.23264777 0 -7.4301461e-06 0 0)
(-1.6172443 -0.23213281 0 7.1500375e-06 0 0)
(-1.6224924 -0.23260233 0 -6.8999689e-06 0 0)
(-1.6177511 -0.23217646 0 6.6744602e-06 0 0)
(-1.6220021 -0.2325603 0 -6.4773211e-06 0 0)
(-1.6182239 -0.23221702 0 6.3042559e-06 0 0)
(-1.6215426 -0.23252105 0 -6.1598959e-06 0 0)
(-1.61867 -0.23225511 0 6.0357457e-06 0 0)
(-1.6211057 -0.23248396 0 -5.9564999e-06 0 0)
(-1.6190943 -0.23229107 0 5.8984745e-06 0 0)
(-1.6206818 -0.23244763 0 -5.711619e-06 0 0)
(-1.619524 -0.23232362 0 6.8405624e-06 0 0)
(-1.6203869 -0.23242593 0 -6.5132583e-06 0 0)
(-1.0462994 -0.45911136 0 -0.15655732 0 0)
(-1.7456036 -0.24503688 0 -0.0047735084 0 0)
(-1.543712 -0.23257724 0 -0.0024097984 0 0)
(-1.5828907 -0.23032242 0 -0.00018426563 0 0)
(-1.5087365 -0.2239072 0 -6.6134867e-05 0 0)
(-1.5574895 -0.22823301 0 -4.5579328e-05 0 0)
(-1.5074511 -0.22374074 0 2.9122104e-05 0 0)
(-1.5519677 -0.22780602 0 -3.1738753e-05 0 0)
(-1.5099476 -0.22398375 0 3.1559022e-05 0 0)
(-1.5491998 -0.22757347 0 -2.9776812e-05 0 0)
(-1.5122857 -0.22420236 0 2.8001692e-05 0 0)
(-1.5469107 -0.2273685 0 -2.6573285e-05 0 0)
(-1.5143518 -0.22439331 0 2.4872587e-05 0 0)
(-1.5449007 -0.22718694 0 -2.3514862e-05 0 0)
(-1.5161881 -0.22456272 0 2.2082763e-05 0 0)
(-1.5431268 -0.2270265 0 -2.0834231e-05 0 0)
(-1.5178205 -0.2247131 0 1.9603756e-05 0 0)
(-1.5415578 -0.22688447 0 -1.8486675e-05 0 0)
(-1.5192711 -0.22484656 0 1.7413955e-05 0 0)
(-1.5401676 -0.22675853 0 -1.6425825e-05 0 0)
(-1.5205609 -0.22496507 0 1.5486093e-05 0 0)
(-1.5389338 -0.22664669 0 -1.4616297e-05 0 0)
(-1.5217087 -0.22507041 0 1.3792627e-05 0 0)
(-1.537837 -0.22654724 0 -1.3029255e-05 0 0)
(-1.5227317 -0.22516419 0 1.2308264e-05 0 0)
(-1.5368602 -0.22645864 0 -1.1640137e-05 0 0)
(-1.5236452 -0.22524781 0 1.101055e-05 0 0)
(-1.5359881 -0.22637955 0 -1.0427691e-05 0 0)
(-1.5244627 -0.22532257 0 9.8798055e-06 0 0)
(-1.5352075 -0.22630876 0 -9.3734658e-06 0 0)
(-1.5251967 -0.22538958 0 8.8988992e-06 0 0)
(-1.5345062 -0.2262452 0 -8.4614814e-06 0 0)
(-1.5258579 -0.22544986 0 8.053019e-06 0 0)
(-1.5338737 -0.22618791 0 -7.677988e-06 0 0)
(-1.5264565 -0.22550433 0 7.3294757e-06 0 0)
(-1.5333 -0.22613602 0 -7.0112872e-06 0 0)
(-1.5270013 -0.22555381 0 6.7175651e-06 0 0)
(-1.5327767 -0.22608873 0 -6.4516306e-06 0 0)
(-1.5275006 -0.22559905 0 6.2085166e-06 0 0)
(-1.5322955 -0.22604534 0 -5.9912257e-06 0 0)
(-1.5279619 -0.22564073 0 5.7956196e-06 0 0)
(-1.5318492 -0.22600519 0 -5.6244515e-06 0 0)
(-1.5283922 -0.22567949 0 5.4746022e-06 0 0)
(-1.531431 -0.22596768 0 -5.3497262e-06 0 0)
(-1.5287981 -0.22571591 0 5.2417072e-06 0 0)
(-1.5310337 -0.22593222 0 -5.1772858e-06 0 0)
(-1.5291839 -0.22575031 0 5.1251669e-06 0 0)
(-1.5306471 -0.2258973 0 -4.9299549e-06 0 0)
(-1.529569 -0.22578071 0 6.1688212e-06 0 0)
(-1.5303519 -0.22587493 0 -5.9010524e-06 0 0)
(-1.0185769 -0.44032171 0 -0.14592115 0 0)
(-1.5859335 -0.23443837 0 -0.0050956955 0 0)
(-1.4509932 -0.22624816 0 -0.0025883758 0 0)
(-1.489212 -0.22369571 0 -0.00026673025 0 0)
(-1.4231967 -0.21752995 0 -0.00010022798 0 0)
(-1.467805 -0.22158807 0 -4.4845992e-05 0 0)
(-1.4221626 -0.21730279 0 2.3324339e-05 0 0)
(-1.4626766 -0.22116603 0 -2.7067602e-05 0 0)
(-1.4243355 -0.21752607 0 2.7535277e-05 0 0)
(-1.4601137 -0.2209446 0 -2.5829222e-05 0 0)
(-1.4264462 -0.21773401 0 2.4349264e-05 0 0)
(-1.4580214 -0.2207497 0 -2.3129385e-05 0 0)
(-1.4283267 -0.21791592 0 2.1625607e-05 0 0)
(-1.456187 -0.22057681 0 -2.0463306e-05 0 0)
(-1.4299993 -0.21807726 0 1.9206923e-05 0 0)
(-1.4545681 -0.22042397 0 -1.8126312e-05 0 0)
(-1.4314863 -0.21822048 0 1.7053764e-05 0 0)
(-1.4531364 -0.22028866 0 -1.6082487e-05 0 0)
(-1.4328079 -0.21834761 0 1.5149697e-05 0 0)
(-1.4518678 -0.22016867 0 -1.428926e-05 0 0)
(-1.4339831 -0.2184605 0 1.3472642e-05 0 0)
(-1.450742 -0.22006211 0 -1.2714943e-05 0 0)
(-1.4350291 -0.21856087 0 1.1999228e-05 0 0)
(-1.4497414 -0.21996734 0 -1.1334196e-05 0 0)
(-1.4359614 -0.21865021 0 1.0707638e-05 0 0)
(-1.4488502 -0.21988291 0 -1.0125603e-05 0 0)
(-1.4367938 -0.2187299 0 9.5784006e-06 0 0)
(-1.4480548 -0.21980753 0 -9.0706742e-06 0 0)
(-1.4375389 -0.21880115 0 8.5944154e-06 0 0)
(-1.4473428 -0.21974005 0 -8.153366e-06 0 0)
(-1.4382077 -0.21886502 0 7.7407875e-06 0 0)
(-1.4467034 -0.21967946 0 -7.3597855e-06 0 0)
(-1.4388104 -0.21892249 0 7.004636e-06 0 0)
(-1.4461266 -0.21962484 0 -6.6779804e-06 0 0)
(-1.4393558 -0.21897443 0 6.3749287e-06 0 0)
(-1.4456037 -0.21957534 0 -6.0977871e-06 0 0)
(-1.4398522 -0.21902162 0 5.842367e-06 0 0)
(-1.4451266 -0.21953024 0 -5.6107467e-06 0 0)
(-1.440307 -0.21906478 0 5.3993466e-06 0 0)
(-1.4446882 -0.21948883 0 -5.2101174e-06 0 0)
(-1.4407272 -0.21910456 0 5.0400829e-06 0 0)
(-1.4442816 -0.2194505 0 -4.8910641e-06 0 0)
(-1.441119 -0.21914156 0 4.7609536e-06 0 0)
(-1.4439007 -0.21941468 0 -4.6524993e-06 0 0)
(-1.4414885 -0.21917635 0 4.5579995e-06 0 0)
(-1.4435391 -0.2193808 0 -4.5056778e-06 0 0)
(-1.4418396 -0.21920926 0 4.4571395e-06 0 0)
(-1.4431866 -0.21934731 0 -4.2556512e-06 0 0)
(-1.4421851 -0.21923775 0 5.5632512e-06 0 0)
(-1.4428954 -0.21932444 0 -5.3455658e-06 0 0)
(-0.98307215 -0.41487241 0 -0.13154425 0 0)
(-1.4361121 -0.22382941 0 -0.0052100506 0 0)
(-1.3604129 -0.21955041 0 -0.0026424702 0 0)
(-1.3969662 -0.21703267 0 -0.00036638683 0 0)
(-1.3392931 -0.21111359 0 -0.00013458204 0 0)
(-1.3806062 -0.21493618 0 -4.4849281e-05 0 0)
(-1.3391503 -0.21085807 0 1.8015426e-05 0 0)
(-1.3760945 -0.21452899 0 -2.29274e-05 0 0)
(-1.3411258 -0.21106543 0 2.3951403e-05 0 0)
(-1.3737457 -0.21431859 0 -2.2293983e-05 0 0)
(-1.3430369 -0.21126308 0 2.1089153e-05 0 0)
(-1.3718337 -0.21413334 0 -2.0048151e-05 0 0)
(-1.3447485 -0.21143623 0 1.8722805e-05 0 0)
(-1.3701592 -0.21396882 0 -1.7734569e-05 0 0)
(-1.3462722 -0.21158978 0 1.6635145e-05 0 0)
(-1.3686817 -0.21382333 0 -1.570497e-05 0 0)
(-1.3476269 -0.21172609 0 1.4773287e-05 0 0)
(-1.367375 -0.21369452 0 -1.3932653e-05 0 0)
(-1.3488312 -0.21184709 0 1.3124722e-05 0 0)
(-1.3662173 -0.21358028 0 -1.2378669e-05 0 0)
(-1.3499022 -0.21195456 0 1.1671947e-05 0 0)
(-1.36519 -0.21347882 0 -1.101464e-05 0 0)
(-1.3508554 -0.2120501 0 1.0395315e-05 0 0)
(-1.364277 -0.21338858 0 -9.8183444e-06 0 0)
(-1.3517051 -0.21213517 0 9.27612e-06 0 0)
(-1.3634639 -0.21330818 0 -8.771169e-06 0 0)
(-1.3524639 -0.21221105 0 8.2975503e-06 0 0)
(-1.3627383 -0.21323639 0 -7.8570878e-06 0 0)
(-1.353143 -0.21227889 0 7.4448103e-06 0 0)
(-1.3620888 -0.21317213 0 -7.0622057e-06 0 0)
(-1.3537527 -0.21233973 0 6.7050007e-06 0 0)
(-1.3615056 -0.21311441 0 -6.3744917e-06 0 0)
(-1.3543019 -0.21239447 0 6.0669643e-06 0 0)
(-1.3609796 -0.21306236 0 -5.7835963e-06 0 0)
(-1.354799 -0.21244396 0 5.5211458e-06 0 0)
(-1.3605028 -0.2130152 0 -5.2807219e-06 0 0)
(-1.3552513 -0.21248893 0 5.0594962e-06 0 0)
(-1.3600679 -0.2129722 0 -4.8585528e-06 0 0)
(-1.3556658 -0.21253008 0 4.6754416e-06 0 0)
(-1.3596683 -0.21293272 0 -4.5112699e-06 0 0)
(-1.3560486 -0.21256801 0 4.3640025e-06 0 0)
(-1.3592978 -0.21289617 0 -4.2347091e-06 0 0)
(-1.3564055 -0.21260331 0 4.1220963e-06 0 0)
(-1.3589508 -0.21286198 0 -4.0281394e-06 0 0)
(-1.3567419 -0.21263652 0 3.9455445e-06 0 0)
(-1.3586216 -0.21282965 0 -3.9035457e-06 0 0)
(-1.3570616 -0.21266796 0 3.8574799e-06 0 0)
(-1.3583003 -0.21279757 0 -3.6520403e-06 0 0)
(-1.3573719 -0.21269474 0 4.9947702e-06 0 0)
(-1.3580161 -0.21277437 0 -4.8248907e-06 0 0)
(-0.95827135 -0.39527273 0 -0.12034641 0 0)
(-1.3008916 -0.21442813 0 -0.0055015086 0 0)
(-1.2722737 -0.21234709 0 -0.0025510138 0 0)
(-1.3065069 -0.21041347 0 -0.00050004678 0 0)
(-1.2575224 -0.20470971 0 -0.00017183322 0 0)
(-1.2959616 -0.20828497 0 -4.5564222e-05 0 0)
(-1.258455 -0.20440715 0 1.328194e-05 0 0)
(-1.2921922 -0.2078938 0 -1.9098782e-05 0 0)
(-1.2603279 -0.20460119 0 2.0753736e-05 0 0)
(-1.2900733 -0.20769507 0 -1.9065161e-05 0 0)
(-1.2620711 -0.20478945 0 1.8142116e-05 0 0)
(-1.2883314 -0.20751935 0 -1.7247928e-05 0 0)
(-1.2636309 -0.20495425 0 1.6090244e-05 0 0)
(-1.2868041 -0.20736295 0 -1.5257804e-05 0 0)
(-1.2650191 -0.20510029 0 1.4301315e-05 0 0)
(-1.285456 -0.20722457 0 -1.350763e-05 0 0)
(-1.2662533 -0.20522993 0 1.2703564e-05 0 0)
(-1.2842636 -0.20710203 0 -1.1981682e-05 0 0)
(-1.2673505 -0.20534501 0 1.1286828e-05 0 0)
(-1.2832072 -0.20699335 0 -1.0644756e-05 0 0)
(-1.2683264 -0.20544724 0 1.003758e-05 0 0)
(-1.2822699 -0.20689682 0 -9.4715264e-06 0 0)
(-1.2691951 -0.20553812 0 8.9395351e-06 0 0)
(-1.281437 -0.20681096 0 -8.4425988e-06 0 0)
(-1.2699694 -0.20561906 0 7.9767976e-06 0 0)
(-1.2806953 -0.20673445 0 -7.5418961e-06 0 0)
(-1.2706609 -0.20569125 0 7.1349689e-06 0 0)
(-1.2800334 -0.20666614 0 -6.7556238e-06 0 0)
(-1.2712799 -0.20575581 0 6.4013402e-06 0 0)
(-1.2794411 -0.20660498 0 -6.0718322e-06 0 0)
(-1.2718355 -0.20581371 0 5.7648207e-06 0 0)
(-1.2789092 -0.20655004 0 -5.4801764e-06 0 0)
(-1.272336 -0.20586582 0 5.2158145e-06 0 0)
(-1.2784296 -0.20650049 0 -4.9717577e-06 0 0)
(-1.272789 -0.20591293 0 4.7461031e-06 0 0)
(-1.2779949 -0.20645558 0 -4.5390131e-06 0 0)
(-1.2732012 -0.20595576 0 4.3487655e-06 0 0)
(-1.2775985 -0.20641463 0 -4.1756564e-06 0 0)
(-1.2735789 -0.20599495 0 4.0181534e-06 0 0)
(-1.2772342 -0.20637702 0 -3.8766922e-06 0 0)
(-1.2739276 -0.20603109 0 3.7499994e-06 0 0)
(-1.2768967 -0.20634217 0 -3.6385419e-06 0 0)
(-1.2742526 -0.20606474 0 3.5416792e-06 0 0)
(-1.2765806 -0.20630958 0 -3.4607282e-06 0 0)
(-1.274559 -0.20609641 0 3.3888121e-06 0 0)
(-1.2762809 -0.20627875 0 -3.3557068e-06 0 0)
(-1.2748501 -0.20612643 0 3.3115238e-06 0 0)
(-1.275988 -0.20624806 0 -3.1042886e-06 0 0)
(-1.2751288 -0.20615167 0 4.4535433e-06 0 0)
(-1.2757132 -0.20622468 0 -4.3333076e-06 0 0)
(-0.93500663 -0.37578066 0 -0.10952127 0 0)
(-1.1779521 -0.2045795 0 -0.0053777047 0 0)
(-1.1843613 -0.20512618 0 -0.0025107131 0 0)
(-1.2215303 -0.20361926 0 -0.00051976353 0 0)
(-1.1786691 -0.19824265 0 -0.00018281673 0 0)
(-1.2142735 -0.20163555 0 -4.2584556e-05 0 0)
(-1.1802587 -0.1979546 0 9.433125e-06 0 0)
(-1.2110262 -0.20126373 0 -1.5643482e-05 0 0)
(-1.1819882 -0.19813495 0 1.7820334e-05 0 0)
(-1.2090947 -0.20107471 0 -1.6140862e-05 0 0)
(-1.1835683 -0.19831343 0 1.5458925e-05 0 0)
(-1.207504 -0.20090781 0 -1.4700204e-05 0 0)
(-1.1849872 -0.19847004 0 1.3694996e-05 0 0)
(-1.2061106 -0.20075919 0 -1.3004026e-05 0 0)
(-1.1862512 -0.19860883 0 1.2177544e-05 0 0)
(-1.2048809 -0.20062767 0 -1.1508177e-05 0 0)
(-1.1873751 -0.19873203 0 1.0820002e-05 0 0)
(-1.2037933 -0.20051118 0 -1.0206359e-05 0 0)
(-1.1883744 -0.1988414 0 9.6141964e-06 0 0)
(-1.2028298 -0.20040786 0 -9.0668959e-06 0 0)
(-1.1892632 -0.19893856 0 8.5501489e-06 0 0)
(-1.201975 -0.20031609 0 -8.0672554e-06 0 0)
(-1.1900545 -0.19902495 0 7.6146169e-06 0 0)
(-1.2012154 -0.20023446 0 -7.1906088e-06 0 0)
(-1.1907599 -0.19910189 0 6.7942597e-06 0 0)
(-1.2005392 -0.20016172 0 -6.42318e-06 0 0)
(-1.1913899 -0.19917053 0 6.0768688e-06 0 0)
(-1.1999357 -0.20009676 0 -5.7532004e-06 0 0)
(-1.1919537 -0.19923191 0 5.4516319e-06 0 0)
(-1.1993957 -0.20003859 0 -5.1704871e-06 0 0)
(-1.1924599 -0.19928697 0 4.909102e-06 0 0)
(-1.1989108 -0.19998634 0 -4.6662268e-06 0 0)
(-1.1929159 -0.19933653 0 4.4411014e-06 0 0)
(-1.1984737 -0.1999392 0 -4.232838e-06 0 0)
(-1.1933285 -0.19938135 0 4.0406254e-06 0 0)
(-1.1980775 -0.19989647 0 -3.8638768e-06 0 0)
(-1.193704 -0.1994221 0 3.7017748e-06 0 0)
(-1.1977163 -0.1998575 0 -3.553988e-06 0 0)
(-1.1940479 -0.1994594 0 3.4197358e-06 0 0)
(-1.1973845 -0.1998217 0 -3.2989152e-06 0 0)
(-1.1943655 -0.19949381 0 3.1908744e-06 0 0)
(-1.197077 -0.19978852 0 -3.0955935e-06 0 0)
(-1.1946614 -0.19952585 0 3.0129589e-06 0 0)
(-1.1967892 -0.19975747 0 -2.9437208e-06 0 0)
(-1.1949404 -0.19955603 0 2.8814423e-06 0 0)
(-1.1965165 -0.19972809 0 -2.8559802e-06 0 0)
(-1.1952053 -0.19958467 0 2.813405e-06 0 0)
(-1.1962497 -0.19969879 0 -2.6063098e-06 0 0)
(-1.1954557 -0.19960852 0 3.937601e-06 0 0)
(-1.1959859 -0.19967536 0 -3.870561e-06 0 0)
(-0.9159213 -0.35264466 0 -0.095502309 0 0)
(-1.0735749 -0.19567544 0 -0.0051966936 0 0)
(-1.0977909 -0.19796648 0 -0.0025203817 0 0)
(-1.142019 -0.19664638 0 -0.00042153799 0 0)
(-1.1025525 -0.19165984 0 -0.00015596501 0 0)
(-1.135386 -0.19495728 0 -2.9767472e-05 0 0)
(-1.1044823 -0.19148567 0 8.7537244e-06 0 0)
(-1.1325297 -0.19463245 0 -1.1725723e-05 0 0)
(-1.1060941 -0.19166426 0 1.5375025e-05 0 0)
(-1.1307846 -0.1944564 0 -1.3409485e-05 0 0)
(-1.1075348 -0.1918347 0 1.3035078e-05 0 0)
(-1.1293377 -0.19429849 0 -1.2370183e-05 0 0)
(-1.108827 -0.19198362 0 1.1513898e-05 0 0)
(-1.1280685 -0.19415746 0 -1.0948332e-05 0 0)
(-1.1099775 -0.19211544 0 1.0241487e-05 0 0)
(-1.1269478 -0.19403255 0 -9.6851494e-06 0 0)
(-1.1110005 -0.19223243 0 9.1025744e-06 0 0)
(-1.1259565 -0.19392191 0 -8.587732e-06 0 0)
(-1.11191 -0.1923363 0 8.0890202e-06 0 0)
(-1.1250784 -0.19382377 0 -7.628274e-06 0 0)
(-1.112719 -0.19242857 0 7.1938211e-06 0 0)
(-1.1242994 -0.19373659 0 -6.7868757e-06 0 0)
(-1.1134393 -0.19251063 0 6.4064654e-06 0 0)
(-1.1236072 -0.19365904 0 -6.0490526e-06 0 0)
(-1.1140814 -0.19258371 0 5.7159315e-06 0 0)
(-1.122991 -0.19358993 0 -5.4031232e-06 0 0)
(-1.1146549 -0.19264891 0 5.1120037e-06 0 0)
(-1.1224412 -0.19352821 0 -4.8391625e-06 0 0)
(-1.1151682 -0.19270723 0 4.5855969e-06 0 0)
(-1.1219493 -0.19347294 0 -4.348596e-06 0 0)
(-1.115629 -0.19275954 0 4.1287608e-06 0 0)
(-1.1215076 -0.19342329 0 -3.9240045e-06 0 0)
(-1.1160441 -0.19280664 0 3.7346099e-06 0 0)
(-1.1211095 -0.19337849 0 -3.5590052e-06 0 0)
(-1.1164197 -0.19284923 0 3.3972438e-06 0 0)
(-1.1207487 -0.19333787 0 -3.248172e-06 0 0)
(-1.1167615 -0.19288797 0 3.1116918e-06 0 0)
(-1.1204197 -0.19330081 0 -2.9869932e-06 0 0)
(-1.1170745 -0.19292344 0 2.873895e-06 0 0)
(-1.1201177 -0.19326676 0 -2.7718784e-06 0 0)
(-1.1173635 -0.19295617 0 2.6807864e-06 0 0)
(-1.1198378 -0.19323519 0 -2.6002185e-06 0 0)
(-1.1176328 -0.19298667 0 2.530474e-06 0 0)
(-1.1195759 -0.19320564 0 -2.4718274e-06 0 0)
(-1.1178866 -0.1930154 0 2.4182967e-06 0 0)
(-1.1193278 -0.19317767 0 -2.3993938e-06 0 0)
(-1.1181276 -0.19304269 0 2.3583973e-06 0 0)
(-1.1190851 -0.19314973 0 -2.1532324e-06 0 0)
(-1.1183524 -0.19306526 0 3.4457132e-06 0 0)
(-1.1188334 -0.19312636 0 -3.4363305e-06 0 0)
(-0.90341827 -0.33867811 0 -0.087781091 0 0)
(-0.98780581 -0.18674149 0 -0.0045093731 0 0)
(-1.0135709 -0.1902581 0 -0.002612782 0 0)
(-1.0624152 -0.18989348 0 -0.00047520972 0 0)
(-1.0285987 -0.18519451 0 -0.00016103966 0 0)
(-1.0590435 -0.18831835 0 -2.6405583e-05 0 0)
(-1.0311449 -0.18502716 0 5.9791828e-06 0 0)
(-1.0567123 -0.18800891 0 -8.7465408e-06 0 0)
(-1.032675 -0.18519267 0 1.2975007e-05 0 0)
(-1.0551424 -0.18784136 0 -1.096194e-05 0 0)
(-1.0339859 -0.18535387 0 1.0806572e-05 0 0)
(-1.0538257 -0.18769152 0 -1.0243571e-05 0 0)
(-1.0351603 -0.18549514 0 9.5189176e-06 0 0)
(-1.05267 -0.1875577 0 -9.0692181e-06 0 0)
(-1.0362063 -0.1856202 0 8.471195e-06 0 0)
(-1.0516495 -0.18743917 0 -8.0185164e-06 0 0)
(-1.0371363 -0.1857312 0 7.5321722e-06 0 0)
(-1.0507469 -0.18733417 0 -7.1079037e-06 0 0)
(-1.0379633 -0.18582975 0 6.6943926e-06 0 0)
(-1.0499474 -0.18724102 0 -6.3129729e-06 0 0)
(-1.0386989 -0.18591731 0 5.9535802e-06 0 0)
(-1.0492382 -0.18715828 0 -5.6162239e-06 0 0)
(-1.0393539 -0.18599518 0 5.3017132e-06 0 0)
(-1.0486081 -0.18708467 0 -5.0053068e-06 0 0)
(-1.0399379 -0.18606454 0 4.7298873e-06 0 0)
(-1.0480472 -0.18701907 0 -4.4704499e-06 0 0)
(-1.0404595 -0.18612642 0 4.2297072e-06 0 0)
(-1.0475467 -0.18696048 0 -4.00341e-06 0 0)
(-1.0409263 -0.18618178 0 3.7936654e-06 0 0)
(-1.047099 -0.18690801 0 -3.5970813e-06 0 0)
(-1.0413454 -0.18623144 0 3.4151797e-06 0 0)
(-1.0466971 -0.18686086 0 -3.2453176e-06 0 0)
(-1.0417229 -0.18627616 0 3.0885449e-06 0 0)
(-1.0463348 -0.18681832 0 -2.9428304e-06 0 0)
(-1.0420646 -0.18631661 0 2.8088691e-06 0 0)
(-1.0460066 -0.18677974 0 -2.6851214e-06 0 0)
(-1.0423754 -0.1863534 0 2.5720281e-06 0 0)
(-1.0457073 -0.18674453 0 -2.4684472e-06 0 0)
(-1.04266 -0.1863871 0 2.3746491e-06 0 0)
(-1.0454326 -0.18671218 0 -2.2898206e-06 0 0)
(-1.0429228 -0.18641821 0 2.2141763e-06 0 0)
(-1.0451781 -0.18668217 0 -2.1470406e-06 0 0)
(-1.0431676 -0.18644719 0 2.0890157e-06 0 0)
(-1.0449399 -0.18665407 0 -2.0399949e-06 0 0)
(-1.0433982 -0.18647452 0 1.9944529e-06 0 0)
(-1.0447146 -0.18662747 0 -1.9811749e-06 0 0)
(-1.0436173 -0.1865005 0 1.9419064e-06 0 0)
(-1.0444939 -0.18660087 0 -1.7403364e-06 0 0)
(-1.043819 -0.1865219 0 2.976415e-06 0 0)
(-1.0442551 -0.18657767 0 -3.0296834e-06 0 0)
(-0.88709864 -0.31686724 0 -0.075239937 0 0)
(-0.91003196 -0.17889112 0 -0.0041123592 0 0)
(-0.93777478 -0.18272513 0 -0.0024425139 0 0)
(-0.9864307 -0.18290804 0 -0.00042271029 0 0)
(-0.95723121 -0.17863335 0 -0.00013777862 0 0)
(-0.98527252 -0.18164353 0 -1.5634317e-05 0 0)
(-0.96017291 -0.17854887 0 5.8026707e-06 0 0)
(-0.98349949 -0.1813814 0 -5.2907988e-06 0 0)
(-0.96170213 -0.1787156 0 1.1006299e-05 0 0)
(-0.98213884 -0.18122757 0 -8.6474004e-06 0 0)
(-0.96291988 -0.17887023 0 8.7876877e-06 0 0)
(-0.98095521 -0.18108647 0 -8.2863382e-06 0 0)
(-0.96399232 -0.17900453 0 7.6928086e-06 0 0)
(-0.97990714 -0.1809598 0 -7.3457419e-06 0 0)
(-0.96494343 -0.17912316 0 6.8485511e-06 0 0)
(-0.97897975 -0.18084745 0 -6.4906458e-06 0 0)
(-0.96578829 -0.17922839 0 6.0924205e-06 0 0)
(-0.97815909 -0.1807479 0 -5.7513513e-06 0 0)
(-0.96653937 -0.17932182 0 5.4157343e-06 0 0)
(-0.97743212 -0.18065958 0 -5.107226e-06 0 0)
(-0.96720753 -0.17940483 0 4.8164587e-06 0 0)
(-0.97678728 -0.18058112 0 -4.5430574e-06 0 0)
(-0.96780248 -0.17947866 0 4.288812e-06 0 0)
(-0.97621437 -0.18051131 0 -4.048461e-06 0 0)
(-0.96833293 -0.17954442 0 3.8258223e-06 0 0)
(-0.97570443 -0.1804491 0 -3.6154135e-06 0 0)
(-0.96880669 -0.1796031 0 3.4207609e-06 0 0)
(-0.97524951 -0.18039353 0 -3.2372118e-06 0 0)
(-0.96923076 -0.17965559 0 3.0675658e-06 0 0)
(-0.97484255 -0.18034376 0 -2.9080947e-06 0 0)
(-0.96961143 -0.17970269 0 2.7609086e-06 0 0)
(-0.97447725 -0.18029904 0 -2.623082e-06 0 0)
(-0.96995437 -0.17974511 0 2.4961655e-06 0 0)
(-0.974148 -0.18025868 0 -2.377887e-06 0 0)
(-0.97026467 -0.17978349 0 2.2693684e-06 0 0)
(-0.97384972 -0.18022207 0 -2.1688604e-06 0 0)
(-0.97054697 -0.17981841 0 2.0771677e-06 0 0)
(-0.97357785 -0.18018866 0 -1.9929601e-06 0 0)
(-0.9708055 -0.17985039 0 1.9168168e-06 0 0)
(-0.97332824 -0.18015794 0 -1.8477484e-06 0 0)
(-0.9710441 -0.17987992 0 1.786223e-06 0 0)
(-0.97309707 -0.18012944 0 -1.7313928e-06 0 0)
(-0.97126638 -0.17990745 0 1.6840568e-06 0 0)