/*--------------------------------*- C++ -*----------------------------------*\
| =========                 |                                                 |
| \\      /  F ield         | OpenFOAM: The Open Source CFD Toolbox           |
|  \\    /   O peration     | Version:  2312                                  |
|   \\  /    A nd           | Website:  www.openfoam.com                      |
|    \\/     M anipulation  |                                                 |
\*---------------------------------------------------------------------------*/
FoamFile
{
    version     2.0;
    format      ascii;
    arch        "LSB;label=32;scalar=64";
    class       volScalarField;
    location    "5";
    object      T;
}
// * * * * * * * * * * * * * * * * * * * * * * * * * * * * * * * * * * * * * //

dimensions      [0 0 0 1 0 0 0];

internalField   nonuniform List<scalar> 
4000
(
329.07578
327.96525
327.81304
327.73456
327.67987
327.62645
327.58578
327.54089
327.50529
327.46465
327.43157
327.39349
327.36187
327.32551
327.29481
327.25966
327.22958
327.19534
327.1657
327.13217
327.10286
327.06988
327.04082
327.00828
326.97942
326.94725
326.91855
326.88668
326.85813
326.82649
326.79807
326.76662
326.73832
326.70704
326.67884
326.64769
326.6196
326.58855
326.56057
326.52958
326.50172
326.47077
326.44304
326.41209
326.38451
326.35352
326.32614
326.29501
326.26801
326.23609
331.05205
329.04181
328.64672
328.46853
328.36154
328.25843
328.19343
328.1159
328.0661
328.00128
327.95904
327.9019
327.86405
327.81203
327.77694
327.72858
327.69536
327.64972
327.61782
327.57429
327.54337
327.5015
327.47134
327.43079
327.40124
327.36178
327.33272
327.29414
327.26552
327.22767
327.19943
327.16216
327.13428
327.09749
327.06994
327.03352
327.0063
326.97018
326.94329
326.90737
326.88082
326.84502
326.81886
326.78308
326.75736
326.72145
326.69633
326.65998
326.63604
326.59741
332.35184
330.0912
329.47498
329.19948
329.04086
328.88873
328.79945
328.68963
328.62559
328.53684
328.48538
328.40936
328.3652
328.29767
328.25813
328.19667
328.16024
328.1033
328.06909
328.01564
327.98307
327.93237
327.90107
327.85258
327.82229
327.77559
327.74615
327.70091
327.67219
327.62815
327.60008
327.55702
327.52953
327.48726
327.46033
327.41869
327.39231
327.35115
327.32532
327.2845
327.25925
327.21862
327.19401
327.15341
327.12954
327.08873
327.06586
327.02432
327.00339
326.95832
333.25674
331.08703
330.28936
329.92288
329.71458
329.51499
329.40179
329.26048
329.18224
329.07007
329.00935
328.91482
328.86428
328.78154
328.73745
328.66312
328.62341
328.55536
328.51876
328.45555
328.42125
328.36187
328.32935
328.27303
328.24195
328.18812
328.15822
328.10642
328.07755
328.02741
327.99944
327.95066
327.92353
327.87584
327.8495
327.80269
327.77711
327.73097
327.70617
327.66049
327.6365
327.5911
327.568
327.52263
327.50057
327.45491
327.43425
327.38758
327.36957
327.31844
333.9135
332.00585
331.07874
330.63241
330.37826
330.13397
329.99771
329.82625
329.73405
329.59932
329.52937
329.41694
329.35997
329.26247
329.21378
329.12694
329.08386
329.00499
328.96591
328.89319
328.85708
328.78921
328.75541
328.69144
328.65949
328.59868
328.56827
328.51003
328.48094
328.42482
328.39691
328.34251
328.31568
328.26268
328.23687
328.18497
328.16015
328.1091
328.08528
328.03482
328.01205
327.96194
327.94031
327.89024
327.86994
327.8195
327.80099
327.7493
327.73405
327.67735
334.4044
332.82972
331.83088
331.32047
331.02649
330.74164
330.58386
330.38422
330.27863
330.12255
330.04356
329.91408
329.85073
329.73911
329.68577
329.58693
329.54042
329.45113
329.4095
329.3276
329.28961
329.21354
329.17838
329.10699
329.0741
329.00651
328.97552
328.91103
328.88167
328.81972
328.7918
328.73192
328.70534
328.64714
328.6218
328.56493
328.54082
328.48497
328.46208
328.40695
328.38534
328.33061
328.31039
328.25572
328.23712
328.18201
328.16555
328.10898
328.09631
328.03454
334.77965
333.54828
332.53387
331.97875
331.65319
331.33336
331.15642
330.93127
330.8132
330.63738
330.54977
330.40434
330.33479
330.20985
330.15195
330.04173
329.99179
329.8926
329.84838
329.75772
329.7178
329.63388
329.5973
329.51879
329.48491
329.4108
329.37916
329.30864
329.27894
329.21136
329.18338
329.1182
329.0918
329.02856
329.00365
328.94196
328.91849
328.85797
328.83596
328.77627
328.75576
328.69655
328.67767
328.61853
328.60154
328.5419
328.52738
328.46614
328.45578
328.38947
335.07105
334.15756
333.17751
332.599
332.252
331.90412
331.71124
331.46391
331.33474
331.1412
331.04562
330.88562
330.81019
330.67297
330.61064
330.48983
330.43653
330.32806
330.28128
330.18237
330.14051
330.04916
330.01113
329.92587
329.89095
329.81063
329.7783
329.70202
329.67193
329.59897
329.57087
329.50061
329.47434
329.40626
329.38172
329.31537
329.2925
329.22748
329.20627
329.14219
329.12271
329.05917
329.04155
328.9781
328.96263
328.89864
328.88591
328.82025
328.81192
328.74157
335.30064
334.66048
333.75433
333.17375
332.81672
332.44886
332.24403
331.97852
331.84004
331.63122
331.5286
331.35568
331.27489
331.12657
331.06011
330.92963
330.87313
330.75611
330.70686
330.60029
330.55652
330.45825
330.41878
330.32718
330.29122
330.20505
330.17201
330.09029
330.05979
329.98171
329.95346
329.87836
329.85218
329.77948
329.75526
329.68447
329.66213
329.59281
329.57235
329.50406
329.48554
329.41786
329.40142
329.33385
329.31978
329.25166
329.24057
329.17076
329.16416
329.09025
335.48367
335.06441
334.26009
333.69698
333.34178
332.9627
332.75059
332.47144
332.3259
332.10457
331.99611
331.81217
331.72671
331.56869
331.49853
331.35944
331.3
331.17527
331.1237
331.01016
330.96458
330.85995
330.8191
330.72165
330.68466
330.59307
330.55932
330.47252
330.44159
330.35872
330.3303
330.25065
330.22453
330.14748
330.12353
330.04854
330.02669
329.95329
329.93351
329.86124
329.8436
329.77199
329.75664
329.68517
329.67238
329.60039
329.59076
329.51714
329.51194
329.43493
335.63157
335.38068
334.694
334.16463
333.8226
333.44133
333.22703
332.93917
332.78917
332.55843
332.44561
332.25276
332.16352
331.99735
331.92403
331.77752
331.71551
331.58401
331.53036
331.41062
331.3634
331.25305
331.21092
331.10816
331.07022
330.97366
330.93924
330.84777
330.81642
330.72913
330.70053
330.61665
330.59057
330.50946
330.48575
330.40684
330.38543
330.30821
330.28906
330.21305
330.19623
330.12093
330.10657
330.03146
330.01983
329.94423
329.93588
329.8588
329.85473
329.77499
335.75269
335.62233
335.05836
334.57485
334.25598
333.88122
333.66999
333.37857
333.22697
332.99012
332.87461
332.67517
332.5832
332.41057
332.33479
332.18216
332.11804
331.98081
331.92541
331.80031
331.75166
331.6363
331.59305
331.48557
331.44678
331.34577
331.31076
331.21506
331.18335
331.09202
331.06326
330.97551
330.94948
330.86463
330.84115
330.75862
330.73761
330.65686
330.6383
330.55882
330.54274
330.46403
330.45057
330.3721
330.3615
330.28261
330.27534
330.19517
330.19195
330.10986
335.85341
335.80323
335.35807
334.92801
334.64029
334.2799
334.07684
333.78696
333.63676
333.39722
333.28089
333.07726
332.98377
332.80647
332.72906
332.5717
332.50604
332.36419
332.30743
332.17788
332.1281
332.00847
331.96431
331.85277
331.81328
331.70837
331.67287
331.57343
331.54143
331.4465
331.41763
331.3264
331.30043
331.21221
331.18896
331.10313
331.08251
330.99854
330.98051
330.89787
330.88247
330.80066
330.78799
330.70647
330.69677
330.61493
330.60855
330.52567
330.52307
330.43894
335.93847
335.93661
335.59991
335.22652
334.97548
334.63607
334.4458
334.16231
334.01651
333.77767
333.66247
333.45713
333.36343
333.18334
333.10519
332.94456
332.87801
332.7327
332.67507
332.54203
332.49146
332.36838
332.32357
332.20864
332.16866
332.06045
332.0246
331.92194
331.88975
331.79168
331.76277
331.66848
331.64261
331.5514
331.52839
331.43964
331.41939
331.33254
331.31501
331.22954
331.21476
331.13016
331.11821
331.03397
331.02503
330.94059
330.93494
330.84973
330.84755
330.76167
336.01147
336.03444
335.79176
335.47446
335.26308
334.94966
334.77607
334.50334
334.36475
334.12989
334.01777
333.81317
333.72063
333.53963
333.46173
333.29933
333.2326
333.08505
333.02707
332.89155
332.8406
332.71491
332.66975
332.55216
332.5119
332.40102
332.365
332.25968
332.22742
332.12671
332.09786
332.00095
331.97524
331.88144
331.85872
331.76741
331.74754
331.65817
331.64112
331.55317
331.53895
331.45192
331.44059
331.35399
331.3457
331.25902
331.25393
331.16677
331.16485
331.0775
336.07507
336.10677
335.94187
335.67711
335.50592
335.22179
335.06782
334.80953
334.68069
334.45281
334.34565
334.14412
334.05413
333.87408
333.79744
333.63476
333.56862
333.42005
333.36231
333.22532
333.17444
333.047
333.00185
332.88233
332.84208
332.72916
332.69319
332.58577
332.55361
332.45077
332.42208
332.32303
332.29757
332.20161
332.17921
332.08575
332.06628
331.97477
331.9582
331.86812
331.85443
331.76532
331.75456
331.66595
331.6582
331.56966
331.56499
331.47624
331.47447
331.38591
336.13122
336.16161
336.05824
335.84045
335.70787
335.45461
335.32215
335.08118
334.96417
334.74589
334.64541
334.44915
334.36303
334.1857
334.11135
333.94984
333.88508
333.7367
333.67982
333.54237
333.49205
333.36373
333.31896
333.19828
333.15833
333.04405
333.00834
332.89942
332.86754
332.7631
332.73472
332.634
332.60888
332.51122
332.4892
332.394
332.37497
332.28171
332.2656
332.1738
332.1606
332.0698
332.05952
331.96929
331.96198
331.87196
331.8676
331.7776
331.77591
331.68638
336.18136
336.20497
336.14819
335.97066
335.8735
335.65113
335.54098
335.31932
335.21572
335.00922
334.91689
334.72783
334.6468
334.47384
334.40277
334.24381
334.18122
334.0342
333.9788
333.8419
333.79263
333.66429
333.62032
333.49922
333.45989
333.34491
333.30974
333.19991
333.16851
333.06301
333.03508
332.93319
332.90853
332.80961
332.78805
332.69156
332.67299
332.57841
332.56278
332.46964
332.45691
332.36479
332.35496
332.26349
332.25654
332.16541
332.16127
332.07037
332.0687
331.97845
336.22653
336.24109
336.21804
336.07375
336.00773
335.81495
335.72693
335.52567
335.43646
335.24339
335.16041
334.98018
334.90533
334.73819
334.67131
334.51618
334.45652
334.31197
334.25866
334.12328
334.07556
333.94805
333.90527
333.78451
333.74614
333.63112
333.59674
333.4866
333.45589
333.34988
333.32257
333.22001
333.19593
333.09623
333.07522
332.97786
332.95982
332.86432
332.84918
332.75511
332.74284
332.64981
332.64038
332.54804
332.5414
332.44952
332.44554
332.35407
332.35238
332.26167
336.26748
336.27276
336.27301
336.15521
336.1155
335.95002
335.88307
335.70245
335.62806
335.44953
335.37673
335.20663
335.13884
334.9788
334.91691
334.76676
334.71071
334.56965
334.51903
334.38607
334.34039
334.21452
334.17334
334.05363
334.01655
333.90214
333.86884
333.75898
333.72918
333.62319
333.59668
333.49395
333.47057
333.37056
333.35019
333.25241
333.23495
333.13896
333.12435
333.02975
333.01794
332.92438
332.91533
332.82251
332.81614
332.72387
332.72
332.62826
332.62656
332.53564
336.30479
336.30167
336.31722
336.21987
336.20152
336.06038
336.01277
335.8523
335.79261
335.62919
335.56706
335.40804
335.34797
335.19603
335.13981
334.99563
334.9438
334.80715
334.75974
334.63003
334.58686
334.46339
334.4242
334.30622
334.27076
334.1576
334.12563
334.01662
333.98796
333.88252
333.85699
333.75457
333.73205
333.63218
333.61256
333.51478
333.49799
333.40191
333.38787
333.29314
333.28181
333.18811
333.17942
333.08649
333.08035
332.98805
332.98427
332.89258
332.89086
332.79999
336.33887
336.32876
336.35375
336.27174
336.27006
336.14999
336.11952
335.9781
335.9325
335.78426
335.73293
335.58557
335.53365
335.39059
335.34055
335.20313
335.15605
335.02459
334.98088
334.85516
334.81492
334.69452
334.65769
334.54209
334.50856
334.39722
334.36686
334.25925
334.23193
334.12755
334.10318
334.00156
333.98003
333.88075
333.86198
333.76464
333.74858
333.65283
333.63941
333.54494
333.5341
333.44064
333.43232
333.33964
333.33373
333.24172
333.23803
333.14668
333.14494
333.05439
336.37007
336.35443
336.38483
336.31405
336.32484
336.22252
336.20673
336.08282
336.05032
335.91689
335.87618
335.74069
335.69711
335.56344
335.51992
335.3899
335.34795
335.22233
335.1827
335.06162
335.02467
334.90797
334.87382
334.76117
334.72986
334.62089
334.59238
334.48668
334.46093
334.35809
334.33504
334.23467
334.21427
334.11601
334.09821
334.00172
333.98646
333.89145
333.87869
333.78486
333.77455
333.68169
333.67375
333.58167
333.57599
333.48459
333.48099
333.39028
333.38855
333.29857
336.39865
336.37883
336.41198
336.3493
336.36898
336.28125
336.27763
336.1694
336.14871
336.02936
335.99878
335.87509
335.83982
335.71578
335.67896
335.55677
335.52022
335.40095
335.36571
335.2498
335.21643
335.10395
335.07277
334.96359
334.93475
334.82864
334.80221
334.69888
334.67489
334.57404
334.55247
334.45379
334.43464
334.33782
334.32108
334.22584
334.21147
334.11756
334.10552
334.01271
334.00295
333.91104
333.9035
333.81235
333.80691
333.71644
333.71295
333.62314
333.62144
333.53231
336.42484
336.40195
336.43622
336.37935
336.40501
336.329
336.33512
336.24063
336.2303
336.12401
336.10286
335.9906
335.96338
335.84901
335.81891
335.70477
335.67378
335.56121
335.53056
335.42023
335.39068
335.28285
335.25486
335.1496
335.12344
335.02063
334.99646
334.89594
334.87387
334.77542
334.75549
334.65888
334.64112
334.54612
334.53053
334.43691
334.4235
334.33105
334.31979
334.22833
334.21917
334.12854
334.12143
334.03152
334.02636
333.9371
333.93374
333.8451
333.84345
333.75541
336.44885
336.42374
336.45817
336.4055
336.4349
336.36816
336.38178
336.29907
336.29755
336.20315
336.19054
336.08914
336.06954
335.96466
335.94112
335.83511
335.80969
335.70403
335.67809
335.57362
335.54804
335.44522
335.42059
335.31959
335.29628
335.19715
335.17541
335.07806
335.05805
334.96237
334.9442
334.85003
334.83375
334.74092
334.72658
334.63493
334.62254
334.5319
334.52146
334.43168
334.42316
334.33412
334.32747
334.23909
334.23422
334.14645
334.14325
334.05604
334.05446
333.96777
336.47085
336.44415
336.47821
336.42867
336.46012
336.40062
336.41979
336.347
336.35277
336.26896
336.26391
336.17261
336.16007
336.06431
336.04706
335.94909
335.92914
335.83047
335.80923
335.71083
335.68929
335.59171
335.57054
335.4741
335.45376
335.3586
335.33941
335.24556
335.22772
335.13513
335.11882
335.02741
335.01271
334.92237
334.90935
334.81997
334.80868
334.72013
334.71057
334.62276
334.61492
334.52776
334.5216
334.43502
334.43048
334.34444
334.34144
334.2559
334.2544
334.1693
336.49099
336.46314
336.49657
336.44948
336.48179
336.42789
336.45096
336.3864
336.39801
336.32349
336.32495
336.24288
336.23674
336.14961
336.13825
336.04808
336.0334
335.94167
335.92507
335.83279
335.81529
335.72311
335.70545
335.61377
335.59647
335.50552
335.48895
335.39885
335.38327
335.29405
335.27966
335.19129
335.17824
335.09066
335.07903
334.99219
334.98205
334.89587
334.88724
334.80167
334.79455
334.70951
334.70389
334.61935
334.61517
334.5311
334.52832
334.44467
334.44327
334.36
336.5094
336.48072
336.51337
336.4683
336.50066
336.45112
336.47675
336.41893
336.43505
336.36855
336.37549
336.30174
336.30126
336.22216
336.21621
336.1335
336.12379
336.03885
336.02671
335.94053
335.927
335.84029
335.82611
335.73933
335.72507
335.63852
335.6246
335.53845
335.52518
335.43953
335.42714
335.34203
335.33067
335.2461
335.2359
335.15185
335.14289
335.05933
335.05166
334.96855
334.96219
334.87951
334.87445
334.79218
334.78839
334.7065
334.70396
334.62241
334.62113
334.53988
336.5262
336.4969
336.5287
336.48539
336.51727
336.47115
336.49829
336.44595
336.46544
336.40578
336.41718
336.35083
336.35524
336.28351
336.28244
336.20676
336.20166
336.12324
336.11535
336.03515
336.02544
335.94418
335.93341
335.85157
335.84034
335.75828
335.74701
335.66496
335.654
335.5721
335.56171
335.48005
335.47042
335.38904
335.38031
335.29924
335.2915
335.21076
335.20408
335.12364
335.11806
335.03794
335.03346
334.95365
334.95028
334.87076
334.86848
334.78923
334.78808
334.70905
336.54149
336.5117
336.54259
336.5009
336.53199
336.48861
336.51647
336.46857
336.49044
336.43656
336.45151
336.39164
336.40018
336.33513
336.33836
336.26921
336.26831
336.1961
336.19215
336.11775
336.11167
336.03576
336.02828
335.95137
335.94308
335.86555
335.8569
335.77902
335.77036
335.69233
335.68394
335.60586
335.59796
335.51993
335.51267
335.43475
335.42825
335.35048
335.34481
335.26722
335.26244
335.18504
335.18117
335.10399
335.10105
335.02407
335.02208
334.94528
334.94427
334.86763
336.55533
336.52516
336.5551
336.51491
336.54505
336.50393
336.53194
336.48766
336.51109
336.46206
336.47973
336.42549
336.43744
336.37838
336.38531
336.32218
336.32501
336.25864
336.25829
336.18944
336.18674
336.11604
336.11167
336.03963
336.03415
335.96115
335.95502
335.88136
335.87494
335.80083
335.79441
335.72002
335.71381
335.63926
335.63345
335.55881
335.55353
335.47889
335.47422
335.39962
335.39564
335.32112
335.31787
335.24345
335.24096
335.16666
335.16496
335.09077
335.0899
335.01581
336.56779
336.53731
336.56625
336.52751
336.55661
336.51742
336.54518
336.50387
336.52824
336.48326
336.50292
336.45354
336.46822
336.41447
336.42453
336.36687
336.37298
336.31202
336.31492
336.25132
336.25172
336.18602
336.18455
336.11724
336.11442
336.04589
336.04216
335.9727
335.96844
335.89828
335.89377
335.8231
335.81857
335.74754
335.74317
335.6719
335.66783
335.5964
335.59274
335.52122
335.51806
335.44651
335.44388
335.37235
335.37032
335.29881
335.29742
335.22595
335.22523
335.15381
336.57888
336.54816
336.57607
336.53873
336.56679
336.52931
336.55656
336.51774
336.54253
336.50095
336.522
336.47678
336.49358
336.4445
336.45715
336.40441
336.41332
336.35736
336.36312
336.30443
336.30762
336.24669
336.24787
336.18513
336.18479
336.1206
336.11914
336.05382
336.0516
335.98537
335.98268
335.91576
335.91283
335.84537
335.84239
335.77453
335.77165
335.70349
335.70082
335.63246
335.63009
335.5616
335.5596
335.49103
335.48946
335.42084
335.41975
335.35111
335.35054
335.2819
336.58858
336.55771
336.58459
336.54862
336.57566
336.53974
336.56634
336.52962
336.55448
336.51576
336.53769
336.49605
336.51443
336.46944
336.48415
336.43581
336.44708
336.39566
336.4039
336.34977
336.35544
336.29899
336.30257
336.24419
336.24611
336.18612
336.18677
336.12547
336.12517
336.06282
336.06185
335.99863
335.99723
335.93333
335.93168
335.86725
335.86551
335.80066
335.79895
335.73379
335.7322
335.66682
335.66543
335.59988
335.59877
335.5331
335.53232
335.46657
335.46616
335.40036
336.59687
336.56597
336.59184
336.55721
336.58329
336.54884
336.5747
336.53983
336.56449
336.52821
336.55062
336.51203
336.53152
336.4901
336.5064
336.46199
336.47517
336.42788
336.4382
336.38827
336.39609
336.34384
336.34953
336.29528
336.29923
336.24327
336.24583
336.18844
336.1899
336.13132
336.13195
336.07239
336.07241
336.01205
336.01165
335.95063
335.94997
335.88844
335.88764
335.8257
335.82486
335.76261
335.76182
335.69933
335.69865
335.63598
335.63549
335.57269
335.57242
335.50953
336.60366
336.57293
336.59786
336.56457
336.58974
336.5567
336.5818
336.54859
336.57286
336.53868
336.56126
336.5253
336.54551
336.50719
336.52468
336.48373
336.49843
336.45484
336.46688
336.4208
336.43043
336.38207
336.3896
336.33923
336.34497
336.29284
336.2971
336.24346
336.24652
336.1916
336.19369
336.13769
336.13903
336.08212
336.0829
336.02525
336.0256
335.96735
335.96742
335.90868
335.90856
335.84944
335.84921
335.78979
335.78954
335.72988
335.72967
335.66984
335.66972
335.60977
336.60891
336.57862
336.60269
336.57074
336.59509
336.56342
336.58775
336.55606
336.57983
336.5475
336.57
336.53632
336.55692
336.52131
336.53961
336.50173
336.51757
336.4773
336.49072
336.44812
336.45926
336.41447
336.42357
336.3768
336.3841
336.33557
336.34134
336.29126
336.29574
336.24433
336.24774
336.19518
336.19772
336.14419
336.14603
336.09169
336.09298
336.03796
336.03882
335.98326
335.9838
335.92779
335.9281
335.87173
335.87188
335.81523
335.81529
335.75843
335.75844
335.70143
336.61261
336.58307
336.6064
336.57581
336.5994
336.56908
336.59266
336.56239
336.58559
336.55491
336.57715
336.54546
336.5662
336.53294
336.55175
336.51656
336.53322
336.49591
336.51038
336.47093
336.48327
336.44176
336.45214
336.40872
336.41733
336.37217
336.37923
336.33253
336.33824
336.29018
336.29475
336.2455
336.24911
336.19884
336.20165
336.15051
336.15266
336.1008
336.1024
336.04994
336.0511
335.99815
335.99895
335.9456
335.94613
335.89246
335.89277
335.83886
335.839
335.78492
336.61483
336.58636
336.60908
336.57986
336.60275
336.57375
336.59662
336.56771
336.59028
336.56111
336.58296
336.55303
336.57369
336.5425
336.56155
336.52873
336.54592
336.51124
336.52646
336.48984
336.5031
336.46457
336.47598
336.43563
336.44532
336.4033
336.41144
336.3679
336.37467
336.32977
336.33536
336.28926
336.29381
336.24667
336.25033
336.2023
336.2052
336.15641
336.15867
336.10925
336.11096
336.06101
336.06227
336.01188
336.01275
335.96201
335.96255
335.91156
335.91181
335.86063
336.61575
336.58862
336.61083
336.58299
336.60524
336.57754
336.59973
336.5721
336.59404
336.56624
336.58762
336.55926
336.57968
336.55031
336.56939
336.53865
336.55611
336.52376
336.53947
336.50539
336.51932
336.48348
336.49566
336.45813
336.46867
336.42955
336.43857
336.39798
336.40563
336.36371
336.37014
336.32704
336.33239
336.28824
336.29264
336.24759
336.25116
336.20533
336.20817
336.16168
336.1639
336.11686
336.11852
336.07102
336.0722
336.02434
336.02509
335.97695
335.97731
335.92897
336.61564
336.59001
336.61179
336.5853
336.60696
336.58052
336.60206
336.57567
336.59697
336.57046
336.59129
336.56435
336.58439
336.55663
336.57555
336.54665
336.56418
336.53389
336.54986
336.51804
336.53239
336.49899
336.51172
336.47675
336.48792
336.45146
336.46117
336.42332
336.43167
336.39254
336.39967
336.35938
336.3654
336.32409
336.32912
336.28691
336.29104
336.24805
336.2514
336.20774
336.21039
336.16617
336.16818
336.12349
336.12494
336.07988
336.08081
336.03546
336.03591
335.99036
336.61479
336.59069
336.61208
336.5869
336.60801
336.5828
336.60371
336.5785
336.59917
336.57385
336.5941
336.56844
336.58801
336.56169
336.5803
336.55302
336.57043
336.54196
336.55799
336.52818
336.54274
336.51152
336.52459
336.49195
336.50355
336.46953
336.47974
336.44441
336.45331
336.41677
336.42444
336.3868
336.39336
336.35472
336.36026
336.32075
336.32536
336.28508
336.28885
336.2479
336.25092
336.20941
336.21173
336.16975
336.17143
336.12907
336.13016
336.08751
336.08804
336.04518
336.61349
336.59086
336.61183
336.58791
336.60848
336.58445
336.60476
336.58068
336.60071
336.57652
336.59614
336.57165
336.59067
336.56563
336.58382
336.55797
336.5751
336.54824
336.56415
336.53613
336.55071
336.52144
336.53467
336.50412
336.51598
336.48419
336.49472
336.46172
336.47099
336.43686
336.44494
336.40976
336.41673
336.38061
336.38655
336.34958
336.35458
336.31686
336.32098
336.28262
336.28594
336.24702
336.2496
336.21021
336.21209
336.17234
336.17356
336.13352
336.13412
336.09386
336.61197
336.59064
336.61117
336.58844
336.60847
336.58556
336.60528
336.58228
336.60167
336.57853
336.5975
336.57408
336.59249
336.56859
336.58625
336.56167
336.5784
336.55295
336.56859
336.54215
336.55661
336.52908
336.54229
336.51363
336.52558
336.4958
336.50651
336.47563
336.48514
336.45322
336.46157
336.42869
336.43595
336.40218
336.40842
336.37384
336.37913
336.34384
336.34824
336.31233
336.31589
336.27944
336.28222
336.24532
336.24736
336.21009
336.21143
336.17388
336.17454
336.13679
336.61037
336.59017
336.6102
336.58857
336.60806
336.58621
336.60534
336.58336
336.6021
336.57994
336.59824
336.5758
336.59354
336.57067
336.58771
336.56426
336.58047
336.55628
336.57152
336.54648
336.56065
336.53467
336.54773
336.52076
336.53266
336.5047
336.51544
336.48651
336.49611
336.46623
336.47474
336.44397
336.45142
336.41983
336.42628
336.39394
336.39943
336.36643
336.37102
336.33743
336.34117
336.30707
336.31
336.27547
336.27763
336.24274
336.24416
336.209
336.2097
336.17434
336.60875
336.58953
336.60901
336.58839
336.60732
336.58647
336.60501
336.58397
336.60207
336.58081
336.59841
336.57684
336.59388
336.57191
336.58828
336.56582
336.58142
336.55833
336.57307
336.54926
336.56305
336.53844
336.55121
336.52577
336.53748
336.51117
336.52182
336.49465
336.50424
336.47623
336.48477
336.45596
336.46349
336.43394
336.44049
336.41025
336.41586
336.385
336.38973
336.35832
336.36218
336.33029
336.33333
336.30104
336.30329
336.27066
336.27214
336.23925
336.23998
336.2069
336.60714
336.58878
336.60765
336.58796
336.60633
336.58641
336.60433
336.58418
336.6016
336.58116
336.59803
336.57725
336.59353
336.57238
336.58801
336.56641
336.58134
336.55922
336.57336
336.55064
336.56393
336.54055
336.55294
336.52884
336.54027
336.51545
336.5259
336.50033
336.50979
336.48349
336.49198
336.46497
336.47249
336.44481
336.4514
336.4231
336.42877
336.39991
336.4047
336.37533
336.37927
336.34946
336.35257
336.32239
336.3247
336.2942
336.29572
336.26498
336.26574
336.23482
336.60553
336.58795
336.60619
336.58734
336.60512
336.58606
336.60336
336.58399
336.60072
336.58101
336.59711
336.57704
336.59252
336.57207
336.58692
336.56608
336.58026
336.55899
336.57247
336.55071
336.56343
336.54114
336.55304
336.53016
336.54121
336.51772
336.52789
336.50377
336.51303
336.48828
336.49662
336.47126
336.4787
336.45276
336.4593
336.43281
336.43847
336.41147
336.41627
336.38882
336.39278
336.36492
336.36806
336.33986
336.3422
336.31371
336.31526
336.28655
336.28732
336.25844
336.60392
336.58705
336.60464
336.58657
336.60375
336.58545
336.60211
336.58345
336.59944
336.58036
336.59566
336.57619
336.59083
336.57099
336.58501
336.56483
336.57822
336.55769
336.57045
336.54954
336.56162
336.54029
336.55165
336.52986
336.54046
336.51817
336.52797
336.50516
336.51414
336.49081
336.49894
336.4751
336.48238
336.45803
336.46447
336.43965
336.44524
336.41997
336.42474
336.39907
336.40301
336.37698
336.38012
336.35378
336.35612
336.32952
336.33107
336.30427
336.30504
336.27809
336.60228
336.5861
336.60302
336.58566
336.60223
336.58463
336.60059
336.58253
336.59774
336.5792
336.59365
336.57468
336.58844
336.56912
336.58227
336.56265
336.57522
336.55534
336.56733
336.54717
336.55857
336.53809
336.54885
336.52803
336.53812
336.51691
336.52629
336.50468
336.51331
336.49128
336.49914
336.47668
336.48375
336.46088
336.46715
336.44387
336.44935
336.42569
336.43037
336.40637
336.41025
336.38593
336.38903
336.36443
336.36675
336.34192
336.34346
336.31845
336.31922
336.29407
336.60061
336.5851
336.60135
336.58465
336.60058
336.58357
336.5988
336.58123
336.59561
336.57749
336.59104
336.57247
336.58531
336.56642
336.57867
336.55954
336.57125
336.55193
336.56313
336.54362
336.5543
336.53458
336.54471
336.52476
336.5343
336.51407
336.52298
336.50246
336.51069
336.48985
336.49738
336.4762
336.48301
336.46149
336.46757
336.44571
336.45103
336.42887
336.43343
336.41096
336.41476
336.39203
336.39507
336.3721
336.37437
336.3512
336.35271
336.32938
336.33013
336.30668
336.59888
336.58403
336.59962
336.58352
336.59879
336.58227
336.59671
336.57951
336.59298
336.57517
336.58777
336.56951
336.58139
336.56285
336.57416
336.55544
336.56627
336.54744
336.55783
336.5389
336.54884
336.52981
336.53928
336.52011
336.52907
336.50974
336.51814
336.49861
336.50642
336.48666
336.49384
336.47382
336.48034
336.46007
336.4659
336.44537
336.4505
336.42971
336.43412
336.41309
336.41678
336.39552
336.39848
336.37702
336.37924
336.35761
336.35909
336.33732
336.33806
336.31619
336.59709
336.5829
336.59785
336.58228
336.59684
336.5807
336.59426
336.5773
336.58979
336.57217
336.58376
336.56571
336.57661
336.55833
336.5687
336.55032
336.56026
336.54186
336.55142
336.53302
336.54221
336.5238
336.53259
336.51415
336.5225
336.50399
336.51187
336.49324
336.5006
336.48183
336.48863
336.46969
336.47589
336.45677
336.46234
336.44302
336.44794
336.42843
336.43267
336.41297
336.41652
336.39664
336.39949
336.37945
336.38159
336.36141
336.36284
336.34253
336.34325
336.32285
336.59522
336.58171
336.59601
336.58091
336.5947
336.57879
336.59138
336.57452
336.58596
336.56841
336.57894
336.56101
336.57089
336.5528
336.56221
336.54412
336.55317
336.53515
336.54389
336.52596
336.5344
336.51656
336.52468
336.50689
336.51464
336.49688
336.50423
336.48644
336.49333
336.47548
336.48188
336.46394
336.46979
336.45174
336.45702
336.43884
336.44352
336.42519
336.42924
336.41078
336.41418
336.39558
336.39832
336.37959
336.38165
336.36281
336.36419
336.34524
336.34593
336.32691
336.59327
336.58045
336.59409
336.57936
336.59229
336.57646
336.58798
336.57106
336.58136
336.56377
336.57319
336.5553
336.56414
336.54619
336.55464
336.5368
336.54496
336.52728
336.53521
336.51772
336.52542
336.50811
336.51555
336.49838
336.50554
336.48847
336.49528
336.47827
336.48469
336.4677
336.47369
336.45668
336.46218
336.44512
336.4501
336.43297
336.4374
336.42018
336.42402
336.40671
336.40995
336.39254
336.39515
336.37764
336.37962
336.36202
336.36334
336.34567
336.34633
336.3286
336.59121
336.57914
336.59206
336.57759
336.58953
336.57359
336.58391
336.56679
336.57586
336.55813
336.5664
336.54848
336.55627
336.53843
336.54592
336.52829
336.53559
336.51822
336.52537
336.50828
336.51527
336.49845
336.50524
336.48865
336.49521
336.4788
336.48509
336.46881
336.47477
336.45858
336.46415
336.448
336.45315
336.43702
336.4417
336.42554
336.42972
336.41352
336.41716
336.40091
336.40399
336.38768
336.39016
336.37379
336.37567
336.35924
336.3605
336.34401
336.34464
336.32811
336.58903
336.57776
336.5899
336.57551
336.5863
336.57005
336.57904
336.56155
336.56933
336.55136
336.55846
336.54046
336.5472
336.52942
336.53599
336.51855
336.52501
336.50795
336.51433
336.49764
336.50393
336.48759
336.49376
336.47772
336.48372
336.46793
336.47371
336.45812
336.46362
336.44818
336.45335
336.43802
336.44282
336.42755
336.43192
336.41668
336.4206
336.40537
336.40879
336.39355
336.39644
336.38117
336.38352
336.36822
336.36999
336.35465
336.35584
336.34046
336.34106
336.32565
336.58671
336.57632
336.58752
336.573
336.58244
336.56566
336.57317
336.55519
336.56161
336.54333
336.54924
336.53113
336.53684
336.51912
336.52478
336.50753
336.51319
336.49643
336.50208
336.48579
336.49142
336.47556
336.48112
336.46563
336.47108
336.4559
336.46118
336.44626
336.45131
336.43659
336.44137
336.42681
336.43126
336.41681
336.42089
336.40651
336.41017
336.39584
336.39905
336.38474
336.38747