/*--------------------------------*- C++ -*----------------------------------*\
| =========                 |                                                 |
| \\      /  F ield         | OpenFOAM: The Open Source CFD Toolbox           |
|  \\    /   O peration     | Version:  2312                                  |
|   \\  /    A nd           | Website:  www.openfoam.com                      |
|    \\/     M anipulation  |                                                 |
\*---------------------------------------------------------------------------*/
FoamFile
{
    version     2.0;
    format      ascii;
    arch        "LSB;label=32;scalar=64";
    class       volVectorField;
    location    "5";
    object      U;
}
// * * * * * * * * * * * * * * * * * * * * * * * * * * * * * * * * * * * * * //

dimensions      [0 1 -1 0 0 0 0];

internalField   nonuniform List<vector> 
4000
(
(0.0023324904 0.0004250091 0)
(0.0030395001 -6.6110851e-06 0)
(0.0024291562 -3.4484634e-07 0)
(0.0025689258 2.2445681e-07 0)
(0.0024867063 -2.6071039e-07 0)
(0.0025432644 2.3526423e-07 0)
(0.0024908994 -2.2207867e-07 0)
(0.002538436 2.0854092e-07 0)
(0.0024941581 -1.9575655e-07 0)
(0.0025355518 1.841424e-07 0)
(0.0024966846 -1.7329934e-07 0)
(0.0025331521 1.6305415e-07 0)
(0.0024988888 -1.5350153e-07 0)
(0.0025310553 1.4449274e-07 0)
(0.0025008475 -1.3605456e-07 0)
(0.0025292027 1.28126e-07 0)
(0.0025025874 -1.2068677e-07 0)
(0.0025275609 1.1371049e-07 0)
(0.0025041322 -1.0716238e-07 0)
(0.0025261039 1.0102919e-07 0)
(0.0025055043 -9.5273649e-08 0)
(0.0025248093 8.9888402e-08 0)
(0.0025067244 -8.4837509e-08 0)
(0.0025236573 8.0116883e-08 0)
(0.0025078111 -7.5693141e-08 0)
(0.00252263 7.1564244e-08 0)
(0.0025087811 -6.7699754e-08 0)
(0.0025217119 6.4098981e-08 0)
(0.0025096492 -6.0734509e-08 0)
(0.0025208888 5.7606529e-08 0)
(0.0025104288 -5.4690606e-08 0)
(0.0025201483 5.1987468e-08 0)
(0.0025111318 -4.9475568e-08 0)
(0.002519479 4.7155922e-08 0)
(0.0025117687 -4.5009757e-08 0)
(0.0025188707 4.303819e-08 0)
(0.0025123494 -4.1225109e-08 0)
(0.0025183144 3.9571603e-08 0)
(0.0025128826 -3.8064114e-08 0)
(0.0025178014 3.6703618e-08 0)
(0.0025133765 -3.5479032e-08 0)
(0.0025173241 3.4391229e-08 0)
(0.0025138383 -3.3431488e-08 0)
(0.0025168753 3.2600685e-08 0)
(0.002514275 -3.1894081e-08 0)
(0.0025164475 3.130512e-08 0)
(0.0025146932 -3.085816e-08 0)
(0.002516047 3.05185e-08 0)
(0.002515175 -3.0056924e-08 0)
(0.0025159531 3.2156419e-08 0)
(0.0062536807 0.001159656 0)
(0.0085485729 1.077332e-06 0)
(0.0071242034 4.8257325e-06 0)
(0.0074445902 3.1106327e-07 0)
(0.0072182222 -6.0643972e-07 0)
(0.0073831803 8.1627363e-07 0)
(0.0072293856 -7.5604393e-07 0)
(0.007369902 7.2755388e-07 0)
(0.0072390396 -6.873638e-07 0)
(0.0073615307 6.4914403e-07 0)
(0.0072465217 -6.10635e-07 0)
(0.0073544482 5.7541364e-07 0)
(0.0072530545 -5.4134633e-07 0)
(0.0073482438 5.0982926e-07 0)
(0.00725886 -4.7993934e-07 0)
(0.0073427602 4.5204199e-07 0)
(0.0072640166 -4.2577544e-07 0)
(0.0073379005 4.0118319e-07 0)
(0.0072685949 -3.780898e-07 0)
(0.0073335873 3.5645645e-07 0)
(0.0072726621 -3.3616608e-07 0)
(0.0073297538 3.1716708e-07 0)
(0.0072762797 -2.993632e-07 0)
(0.0073263412 2.8270788e-07 0)
(0.0072795029 -2.6711554e-07 0)
(0.0073232972 2.5254786e-07 0)
(0.0072823811 -2.3892739e-07 0)
(0.0073205751 2.2622346e-07 0)
(0.0072849585 -2.143661e-07 0)
(0.0073181335 2.03331e-07 0)
(0.0072872744 -1.930554e-07 0)
(0.0073159351 1.8352009e-07 0)
(0.0072893641 -1.7466936e-07 0)
(0.0073139465 1.6648801e-07 0)
(0.0072912594 -1.5892714e-07 0)
(0.0073121374 1.5197471e-07 0)
(0.0072929891 -1.4558844e-07 0)
(0.0073104806 1.3975877e-07 0)
(0.0072945794 -1.3444979e-07 0)
(0.0073089508 1.2965392e-07 0)
(0.0072960545 -1.2534153e-07 0)
(0.0073075249 1.2150638e-07 0)
(0.0072974367 -1.181248e-07 0)
(0.0073061811 1.1519657e-07 0)
(0.0072987464 -1.1268283e-07 0)
(0.007304897 1.1063114e-07 0)
(0.0073000014 -1.0909302e-07 0)
(0.0073036711 1.0685447e-07 0)
(0.007301373 -1.1087846e-07 0)
(0.0073032058 1.0262427e-07 0)
(0.010013509 0.0018373303 0)
(0.013790631 -8.4935274e-06 0)
(0.011700675 1.2361963e-05 0)
(0.012195287 5.0657345e-07 0)
(0.01182389 -9.3352141e-07 0)
(0.01210137 1.4777268e-06 0)
(0.011843399 -1.3611383e-06 0)
(0.012080016 1.3173399e-06 0)
(0.011859779 -1.2489364e-06 0)
(0.012066055 1.1804881e-06 0)
(0.011872391 -1.1104154e-06 0)
(0.012054145 1.046822e-06 0)
(0.011883403 -9.846535e-07 0)
(0.012043698 9.2743856e-07 0)
(0.011893186 -8.730214e-07 0)
(0.012034463 8.2228221e-07 0)
(0.011901875 -7.7451292e-07 0)
(0.012026279 7.2975924e-07 0)
(0.011909589 -6.8777426e-07 0)
(0.012019014 6.4839941e-07 0)
(0.011916442 -6.1151215e-07 0)
(0.012012557 5.7693131e-07 0)
(0.011922538 -5.4456297e-07 0)
(0.012006808 5.1424825e-07 0)
(0.01192797 -4.8589856e-07 0)
(0.012001679 4.5938393e-07 0)
(0.011932822 -4.346175e-07 0)
(0.011997092 4.114952e-07 0)
(0.011937168 -3.8993295e-07 0)
(0.011992976 3.6984792e-07 0)
(0.011941073 -3.5116052e-07 0)
(0.011989269 3.3380486e-07 0)
(0.011944598 -3.1770726e-07 0)
(0.011985915 3.0281522e-07 0)
(0.011947797 -2.8906202e-07 0)
(0.011982862 2.7640573e-07 0)
(0.011950717 -2.6478725e-07 0)
(0.011980065 2.5417299e-07 0)
(0.011953404 -2.4451197e-07 0)
(0.011977481 2.3577708e-07 0)
(0.011955897 -2.2792605e-07 0)
(0.01197507 2.2093604e-07 0)
(0.011958235 -2.1477377e-07 0)
(0.011972797 2.0942978e-07 0)
(0.011960453 -2.0482629e-07 0)
(0.011970621 2.0109806e-07 0)
(0.01196258 -1.9821664e-07 0)
(0.01196853 1.9377989e-07 0)
(0.011964856 -2.0391395e-07 0)
(0.011967582 1.8539794e-07 0)
(0.013933346 0.0025334403 0)
(0.018810932 -1.6916379e-05 0)
(0.016154069 2.2651895e-05 0)
(0.016820647 4.9647265e-07 0)
(0.016303612 -1.079251e-06 0)
(0.016698065 2.0984071e-06 0)
(0.016332762 -1.9313141e-06 0)
(0.016668993 1.8780074e-06 0)
(0.016356208 -1.788543e-06 0)
(0.016649324 1.691761e-06 0)
(0.01637414 -1.5913731e-06 0)
(0.01663242 1.5008915e-06 0)
(0.016389795 -1.4114947e-06 0)
(0.016617578 1.3296264e-06 0)
(0.016403701 -1.2515671e-06 0)
(0.016604455 1.1788217e-06 0)
(0.016416049 -1.1103743e-06 0)
(0.016592825 1.0461721e-06 0)
(0.016427012 -9.8603184e-07 0)
(0.016582501 9.295376e-07 0)
(0.016436751 -8.7670101e-07 0)
(0.016573325 8.2708443e-07 0)
(0.016445414 -7.8071789e-07 0)
(0.016565154 7.372232e-07 0)
(0.016453135 -6.9660988e-07 0)
(0.016557865 6.5856837e-07 0)
(0.016460032 -6.2308536e-07 0)
(0.016551344 5.8991158e-07 0)
(0.016466209 -5.5901671e-07 0)
(0.016545493 5.3020083e-07 0)
(0.016471762 -5.0342301e-07 0)
(0.016540223 4.7852287e-07 0)
(0.016476774 -4.5545424e-07 0)
(0.016535454 4.340882e-07 0)
(0.016481322 -4.1437749e-07 0)
(0.016531113 3.9621822e-07 0)
(0.016485475 -3.7956515e-07 0)
(0.016527134 3.6433429e-07 0)
(0.016489296 -3.5048478e-07 0)
(0.016523458 3.3794834e-07 0)
(0.016492844 -3.2669072e-07 0)
(0.016520027 3.1665442e-07 0)
(0.016496171 -3.0781394e-07 0)
(0.016516791 3.0013638e-07 0)
(0.016499329 -2.9350711e-07 0)
(0.016513693 2.8818527e-07 0)
(0.016502359 -2.8396495e-07 0)
(0.016510701 2.7710008e-07 0)
(0.016505554 -2.9584713e-07 0)
(0.016509156 2.6479569e-07 0)
(0.017383807 0.0030327467 0)
(0.023607285 -3.7607306e-05 0)
(0.02048724 3.5304777e-05 0)
(0.021320302 3.4137046e-07 0)
(0.020657455 -1.0427564e-06 0)
(0.021173172 2.6456534e-06 0)
(0.020697594 -2.445343e-06 0)
(0.021136709 2.3851277e-06 0)
(0.020728424 -2.2843366e-06 0)
(0.021111226 2.1619107e-06 0)
(0.020751855 -2.0337447e-06 0)
(0.021089177 1.9189886e-06 0)
(0.020772306 -1.8043086e-06 0)
(0.021069798 1.6998888e-06 0)
(0.02079047 -1.6000041e-06 0)
(0.021052662 1.5070306e-06 0)
(0.020806596 -1.4195457e-06 0)
(0.021037474 1.3374387e-06 0)
(0.020820912 -1.2605973e-06 0)
(0.021023993 1.1883353e-06 0)
(0.02083363 -1.1208289e-06 0)
(0.021012009 1.057362e-06 0)
(0.020844944 -9.9811931e-07 0)
(0.021001339 9.4248367e-07 0)
(0.020855027 -8.905882e-07 0)
(0.020991819 8.4192869e-07 0)
(0.020864034 -7.9658542e-07 0)
(0.020983303 7.541529e-07 0)
(0.020872101 -7.1467004e-07 0)
(0.020975662 6.7781203e-07 0)
(0.020879353 -6.4358842e-07 0)
(0.020968779 6.1173899e-07 0)
(0.020885899 -5.8225402e-07 0)
(0.02096255 5.5492466e-07 0)
(0.020891838 -5.2972981e-07 0)
(0.020956881 5.0650146e-07 0)
(0.020897262 -4.8521317e-07 0)
(0.020951685 4.6572937e-07 0)
(0.020902253 -4.480229e-07 0)
(0.020946884 4.3198374e-07 0)
(0.020906886 -4.1758831e-07 0)
(0.020942404 4.0474394e-07 0)
(0.020911232 -3.934354e-07 0)
(0.020938177 3.8360578e-07 0)
(0.020915357 -3.7509685e-07 0)
(0.020934131 3.6833479e-07 0)
(0.020919315 -3.628127e-07 0)
(0.020930212 3.5349455e-07 0)
(0.02092344 -3.8263046e-07 0)
(0.020927974 3.3756671e-07 0)
(0.021350175 0.0037056666 0)
(0.028172452 -4.9022878e-05 0)
(0.024695755 4.9434373e-05 0)
(0.02569294 6.2901716e-09 0)
(0.024885677 -8.6015399e-07 0)
(0.025526336 3.1156176e-06 0)
(0.024938319 -2.9083183e-06 0)
(0.025482808 2.8405297e-06 0)
(0.024976774 -2.7389274e-06 0)
(0.025451441 2.5929245e-06 0)
(0.025005838 -2.4395112e-06 0)
(0.025424134 2.30289e-06 0)
(0.025031203 -2.164804e-06 0)
(0.025400111 2.0398107e-06 0)
(0.025053728 -1.9198411e-06 0)
(0.025378865 1.8083194e-06 0)
(0.025073723 -1.7033645e-06 0)
(0.025360034 1.6048126e-06 0)
(0.025091472 -1.5126577e-06 0)
(0.025343319 1.4259066e-06 0)
(0.02510724 -1.3449507e-06 0)
(0.025328461 1.2687556e-06 0)
(0.025121268 -1.1977065e-06 0)
(0.025315231 1.1309137e-06 0)
(0.02513377 -1.0686718e-06 0)
(0.025303427 1.0102551e-06 0)
(0.025144936 -9.5586802e-07 0)
(0.025292869 9.049278e-07 0)
(0.025154938 -8.5756696e-07 0)
(0.025283395 8.1331948e-07 0)
(0.025163929 -7.7226479e-07 0)
(0.025274862 7.3403022e-07 0)
(0.025172044 -6.986579e-07 0)
(0.02526714 6.6584933e-07 0)
(0.025179408 -6.3562182e-07 0)
(0.025260111 6.0773571e-07 0)
(0.025186132 -5.821931e-07 0)
(0.025253671 5.5880099e-07 0)
(0.025192317 -5.3755365e-07 0)
(0.025247719 5.1829474e-07 0)
(0.025198059 -5.0101744e-07 0)
(0.025242167 4.8559003e-07 0)
(0.025203445 -4.7201287e-07 0)
(0.025236929 4.6020097e-07 0)
(0.025208557 -4.4995053e-07 0)
(0.025231917 4.4188724e-07 0)
(0.025213463 -4.3508464e-07 0)
(0.025227052 4.2334106e-07 0)
(0.025218525 -4.6413736e-07 0)
(0.025224039 4.0367845e-07 0)
(0.024443401 0.0040056688 0)
(0.032505322 -8.3081306e-05 0)
(0.028790903 6.4403144e-05 0)
(0.029936421 -3.2559818e-07 0)
(0.028988414 -5.6117434e-07 0)
(0.029757157 3.503827e-06 0)
(0.029055376 -3.327598e-06 0)
(0.029706915 3.2471834e-06 0)
(0.02910162 -3.1561077e-06 0)
(0.02966963 2.9879401e-06 0)
(0.029136409 -2.811713e-06 0)
(0.029636992 2.6553805e-06 0)
(0.029166769 -2.4956295e-06 0)
(0.029608252 2.3518683e-06 0)
(0.029193723 -2.2134185e-06 0)
(0.029582831 2.0848876e-06 0)
(0.029217648 -1.9639051e-06 0)
(0.029560299 1.8502468e-06 0)
(0.029238885 -1.7440542e-06 0)
(0.029540299 1.6439871e-06 0)
(0.029257752 -1.5507032e-06 0)
(0.02952252 1.4628095e-06 0)
(0.029274536 -1.3809372e-06 0)
(0.02950669 1.30389e-06 0)
(0.029289494 -1.2321619e-06 0)
(0.029492566 1.1647781e-06 0)
(0.029302855 -1.1020978e-06 0)
(0.029479932 1.0433394e-06 0)
(0.029314823 -9.887534e-07 0)
(0.029468597 9.3771583e-07 0)
(0.029325579 -8.9039531e-07 0)
(0.029458387 8.4629379e-07 0)
(0.029335288 -8.0552065e-07 0)
(0.029449149 7.6767765e-07 0)
(0.029344098 -7.3283281e-07 0)
(0.029440741 7.0066692e-07 0)
(0.029352141 -6.7122049e-07 0)
(0.029433037 6.4423683e-07 0)
(0.029359539 -6.1973957e-07 0)
(0.029425919 5.9752102e-07 0)
(0.029366407 -5.7759745e-07 0)
(0.029419279 5.5979376e-07 0)
(0.029372847 -5.441315e-07 0)
(0.029413016 5.304926e-07 0)
(0.02937896 -5.1862847e-07 0)
(0.029407023 5.0938875e-07 0)
(0.029384825 -5.0131624e-07 0)
(0.029401201 4.8722501e-07 0)
(0.029390828 -5.4048794e-07 0)
(0.029397347 4.6347693e-07 0)
(0.028475638 0.0046652328 0)
(0.036632759 -9.3521685e-05 0)
(0.032766205 7.9648946e-05 0)
(0.034048762 -5.2671843e-07 0)
(0.032965479 -1.7731605e-07 0)
(0.033865329 3.8025036e-06 0)
(0.03304919 -3.7053414e-06 0)
(0.033808715 3.6054348e-06 0)
(0.033103288 -3.5366615e-06 0)
(0.033765498 3.3473539e-06 0)
(0.033143848 -3.1507996e-06 0)
(0.033727486 2.9768119e-06 0)
(0.033179249 -2.7971388e-06 0)
(0.033693989 2.6363821e-06 0)
(0.033210673 -2.4810418e-06 0)
(0.033664355 2.3370226e-06 0)
(0.033238564 -2.2014365e-06 0)
(0.033638088 2.0739967e-06 0)
(0.03326332 -1.9550249e-06 0)
(0.033614773 1.8428035e-06 0)
(0.033285314 -1.738298e-06 0)
(0.033594046 1.6397251e-06 0)
(0.03330488 -1.548e-06 0)
(0.033575592 1.4615926e-06 0)
(0.033322317 -1.3812273e-06 0)
(0.033559126 1.305659e-06 0)
(0.033337892 -1.2354266e-06 0)
(0.033544399 1.169533e-06 0)
(0.033351843 -1.1083666e-06 0)
(0.033531185 1.0511326e-06 0)
(0.033364382 -9.9810483e-07 0)
(0.033519284 9.4864963e-07 0)
(0.033375699 -9.0295668e-07 0)
(0.033508515 8.6051989e-07 0)
(0.033385966 -8.2146851e-07 0)
(0.033498716 7.8539745e-07 0)
(0.03339534 -7.5239407e-07 0)
(0.033489737 7.2213299e-07 0)
(0.033403962 -6.9467398e-07 0)
(0.033481443 6.6975401e-07 0)
(0.033411964 -6.4741786e-07 0)
(0.033473706 6.274436e-07 0)
(0.033419468 -6.098788e-07 0)
(0.033466409 5.945678e-07 0)
(0.033426588 -5.8121969e-07 0)
(0.03345943 5.7092584e-07 0)
(0.03343342 -5.6159986e-07 0)
(0.033452645 5.4528386e-07 0)
(0.033440364 -6.1144583e-07 0)
(0.033447895 5.1699927e-07 0)
(0.031320278 0.0048215608 0)
(0.040501398 -0.00014155251 0)
(0.036631794 9.424232e-05 0)
(0.038029038 -9.6990891e-07 0)
(0.03681689 1.4930026e-07 0)
(0.037850576 3.97873e-06 0)
(0.036920127 -4.0455233e-06 0)
(0.037787944 3.9148264e-06 0)
(0.036982068 -3.8801499e-06 0)
(0.037738788 3.6708765e-06 0)
(0.037028403 -3.4563673e-06 0)
(0.037695388 3.266815e-06 0)
(0.037068861 -3.0689764e-06 0)
(0.037657118 2.8930169e-06 0)
(0.037104771 -2.7223933e-06 0)
(0.037623258 2.5644271e-06 0)
(0.03713664 -2.4156752e-06 0)
(0.037593244 2.2757982e-06 0)
(0.037164927 -2.1453174e-06 0)
(0.037566601 2.0221202e-06 0)
(0.037190058 -1.9075101e-06 0)
(0.037542917 1.7992928e-06 0)
(0.037212415 -1.6986946e-06 0)
(0.037521829 1.6038342e-06 0)
(0.03723234 -1.5156894e-06 0)
(0.037503014 1.4327307e-06 0)
(0.037250137 -1.3556951e-06 0)
(0.037486185 1.2833592e-06 0)
(0.037266077 -1.2162644e-06 0)
(0.037471086 1.1534362e-06 0)
(0.037280403 -1.0952661e-06 0)
(0.037457488 1.040978e-06 0)
(0.037293334 -9.9085175e-07 0)
(0.037445185 9.4426832e-07 0)
(0.037305064 -9.0142606e-07 0)
(0.037433989 8.6183007e-07 0)
(0.037315773 -8.2562088e-07 0)
(0.037423732 7.9240137e-07 0)
(0.037325623 -7.6227254e-07 0)
(0.037414257 7.3491361e-07 0)
(0.037334762 -7.1040189e-07 0)
(0.037405421 6.8846658e-07 0)
(0.037343332 -6.691849e-07 0)
(0.037397088 6.5236013e-07 0)
(0.037351463 -6.3766249e-07 0)
(0.03738912 6.264369e-07 0)
(0.037359264 -6.1588481e-07 0)
(0.037381371 5.9750297e-07 0)
(0.037367144 -6.7667775e-07 0)
(0.037375681 5.6422331e-07 0)
(0.035284822 0.0053858013 0)
(0.044206876 -0.00015084608 0)
(0.040374744 0.00010922284 0)
(0.041880699 -1.6797601e-06 0)
(0.040543819 3.1886366e-07 0)
(0.041712653 3.9971564e-06 0)
(0.04066847 -4.3561995e-06 0)
(0.041644335 4.1734504e-06 0)
(0.040738206 -4.1871044e-06 0)
(0.041589265 3.9582011e-06 0)
(0.040790294 -3.7283241e-06 0)
(0.041540491 3.5252055e-06 0)
(0.040835799 -3.3109981e-06 0)
(0.041497457 3.1216229e-06 0)
(0.040876186 -2.9373353e-06 0)
(0.041459378 2.7669711e-06 0)
(0.040912027 -2.6064959e-06 0)
(0.041425623 2.4555351e-06 0)
(0.040943839 -2.314819e-06 0)
(0.041395659 2.1818337e-06 0)
(0.040972101 -2.058239e-06 0)
(0.041369022 1.9414196e-06 0)
(0.040997245 -1.8329311e-06 0)
(0.041345304 1.7305318e-06 0)
(0.041019652 -1.6354681e-06 0)
(0.041324143 1.5459189e-06 0)
(0.041039667 -1.462832e-06 0)
(0.041305217 1.3847517e-06 0)
(0.041057594 -1.3123829e-06 0)
(0.041288236 1.2445671e-06 0)
(0.041073705 -1.1818219e-06 0)
(0.041272944 1.1232255e-06 0)
(0.041088246 -1.0691547e-06 0)
(0.041259108 1.018875e-06 0)
(0.041101437 -9.7265946e-07 0)
(0.041246518 9.2992153e-07 0)
(0.041113478 -8.9085942e-07 0)
(0.041234985 8.5500289e-07 0)
(0.041124553 -8.2249775e-07 0)
(0.041224332 7.9296442e-07 0)
(0.041134828 -7.6651563e-07 0)
(0.041214399 7.4283076e-07 0)
(0.041144461 -7.2201932e-07 0)
(0.041205032 7.0384097e-07 0)
(0.0411536 -6.8793144e-07 0)
(0.041196078 6.7589495e-07 0)
(0.041162368 -6.641554e-07 0)
(0.041187369 6.4389118e-07 0)
(0.041171178 -7.3591639e-07 0)
(0.041180705 6.0519663e-07 0)
(0.038154188 0.0054958835 0)
(0.04766056 -0.00020975685 0)
(0.043989868 0.00012202336 0)
(0.045609167 -1.6006192e-06 0)
(0.044150376 5.881597e-07 0)
(0.045451809 3.9244239e-06 0)
(0.04429461 -4.6224052e-06 0)
(0.045377681 4.3859983e-06 0)
(0.044371935 -4.4566092e-06 0)
(0.045316721 4.2098455e-06 0)
(0.044429719 -3.9667209e-06 0)
(0.045262607 3.7521261e-06 0)
(0.044480239 -3.5233078e-06 0)
(0.045214842 3.3223039e-06 0)
(0.044525075 -3.1259613e-06 0)
(0.045172571 2.9447443e-06 0)
(0.044564861 -2.7739803e-06 0)
(0.045135098 2.6132865e-06 0)
(0.044600175 -2.4636011e-06 0)
(0.045101833 2.322013e-06 0)
(0.04463155 -2.1905474e-06 0)
(0.045072262 2.0661665e-06 0)
(0.044659461 -1.9507652e-06 0)
(0.045045931 1.8417394e-06 0)
(0.044684337 -1.7406131e-06 0)
(0.045022439 1.6452717e-06 0)
(0.044706556 -1.5568815e-06 0)
(0.045001427 1.4737534e-06 0)
(0.044726456 -1.396762e-06 0)
(0.044982576 1.3245642e-06 0)
(0.044744342 -1.2578085e-06 0)
(0.0449656 1.1954272e-06 0)
(0.044760483 -1.1378983e-06 0)
(0.044950241 1.0843718e-06 0)
(0.044775125 -1.0351989e-06 0)
(0.044936267 9.8970118e-07 0)
(0.04478849 -9.4813766e-07 0)
(0.044923465 9.0996485e-07 0)
(0.044800782 -8.7537587e-07 0)
(0.044911642 8.4393229e-07 0)
(0.044812185 -8.1578419e-07 0)
(0.044900618 7.9056114e-07 0)
(0.044822875 -7.6840672e-07 0)
(0.044890225 7.490352e-07 0)
(0.044833016 -7.3205296e-07 0)
(0.044880292 7.1932357e-07 0)
(0.044842744 -7.0644654e-07 0)
(0.044870631 6.8449928e-07 0)
(0.044852472 -7.8897367e-07 0)
(0.044862967 6.4003772e-07 0)
(0.04200844 0.0059129533 0)
(0.051007411 -0.0002178829 0)
(0.047474071 0.00013389636 0)
(0.049213496 -1.4718047e-06 0)
(0.047637801 7.8308656e-07 0)
(0.049067876 3.7354428e-06 0)
(0.047798795 -4.8522221e-06 0)
(0.048987777 4.5515538e-06 0)
(0.047883457 -4.6895767e-06 0)
(0.048920966 4.4260298e-06 0)
(0.047946858 -4.1719296e-06 0)
(0.04886157 3.9478397e-06 0)
(0.048002338 -3.7061824e-06 0)
(0.048809123 3.4953056e-06 0)
(0.048051575 -3.2885073e-06 0)
(0.048762705 3.0979672e-06 0)
(0.048095265 -2.9183343e-06 0)
(0.048721553 2.7492474e-06 0)
(0.048134045 -2.5918454e-06 0)
(0.048685022 2.4428309e-06 0)
(0.048168498 -2.3045961e-06 0)
(0.048652547 2.1736867e-06 0)
(0.04819915 -2.0523398e-06 0)
(0.04862363 1.9375932e-06 0)
(0.048226467 -1.8312517e-06 0)
(0.048597831 1.7309105e-06 0)
(0.048250867 -1.6379575e-06 0)
(0.048574756 1.5504731e-06 0)
(0.048272721 -1.469504e-06 0)
(0.048554054 1.3935249e-06 0)
(0.048292361 -1.3233178e-06 0)
(0.048535412 1.2576711e-06 0)
(0.048310086 -1.197166e-06 0)
(0.048518546 1.1408385e-06 0)
(0.048326164 -1.0891201e-06 0)
(0.048503201 1.0412419e-06 0)
(0.04834084 -9.975252e-07 0)
(0.048489144 9.5735442e-07 0)
(0.048354336 -9.2097138e-07 0)
(0.048476163 8.8787976e-07 0)
(0.048366856 -8.5826807e-07 0)
(0.04846406 8.3171688e-07 0)
(0.048378591 -8.0840486e-07 0)
(0.04845265 7.8799991e-07 0)
(0.048389722 -7.7008475e-07 0)
(0.048441749 7.5677697e-07 0)
(0.048400401 -7.4282394e-07 0)
(0.048431149 7.1940282e-07 0)
(0.048411035 -8.35721e-07 0)
(0.048422469 6.6891215e-07 0)
(0.04497468 0.0060092154 0)
(0.054113619 -0.0002781724 0)
(0.050836601 0.00014132297 0)
(0.05269153 -1.9524886e-06 0)
(0.051005968 7.9183301e-07 0)
(0.052560701 3.4250632e-06 0)
(0.051181218 -5.0496376e-06 0)
(0.052474457 4.6710546e-06 0)
(0.051272965 -4.8862097e-06 0)
(0.052401837 4.6074487e-06 0)
(0.051341874 -4.3443033e-06 0)
(0.052337229 4.1127826e-06 0)
(0.051402239 -3.8599853e-06 0)
(0.052280167 3.6409876e-06 0)
(0.051455813 -3.4253023e-06 0)
(0.052229662 3.2269539e-06 0)
(0.051503351 -3.0398498e-06 0)
(0.052184885 2.8636951e-06 0)
(0.051545545 -2.6998102e-06 0)
(0.052145134 2.5445331e-06 0)
(0.051583033 -2.4006146e-06 0)
(0.052109796 2.2641981e-06 0)
(0.051616385 -2.1378589e-06 0)
(0.052078331 2.0182871e-06 0)
(0.051646109 -1.9075657e-06 0)
(0.052050257 1.8030083e-06 0)
(0.051672658 -1.7062227e-06 0)
(0.052025148 1.6150652e-06 0)
(0.051696437 -1.5307545e-06 0)
(0.052002622 1.4515879e-06 0)
(0.051717808 -1.378481e-06 0)
(0.051982337 1.3100822e-06 0)
(0.051737094 -1.2470762e-06 0)
(0.051963986 1.1883885e-06 0)
(0.051754588 -1.1345309e-06 0)
(0.05194729 1.084647e-06 0)
(0.051770555 -1.0391206e-06 0)
(0.051931996 9.9726652e-07 0)
(0.051785238 -9.593754e-07 0)
(0.051917873 9.2489498e-07 0)
(0.051798858 -8.9405241e-07 0)
(0.051904706 8.6638092e-07 0)
(0.051811624 -8.4209448e-07 0)
(0.051892295 8.2081453e-07 0)
(0.051823732 -8.0210607e-07 0)
(0.05188044 7.8833064e-07 0)
(0.051835347 -7.7337444e-07 0)
(0.051868915 7.4869373e-07 0)
(0.051846871 -8.7607798e-07 0)
(0.05185921 6.9201843e-07 0)
(0.048650878 0.0062784928 0)
(0.057148849 -0.00028540203 0)
(0.05407222 0.00014977365 0)
(0.056045327 -2.1768113e-06 0)
(0.054254869 7.5922047e-07 0)
(0.055930313 3.0484769e-06 0)
(0.054442083 -5.2038088e-06 0)
(0.055837562 4.7481193e-06 0)
(0.054540621 -5.0464873e-06 0)
(0.05575918 4.7548536e-06 0)
(0.054614911 -4.4843659e-06 0)
(0.055689449 4.2474615e-06 0)
(0.054680069 -3.985196e-06 0)
(0.055627856 3.7597954e-06 0)
(0.054737901 -3.5367674e-06 0)
(0.055573336 3.3321002e-06 0)
(0.054789216 -3.138898e-06 0)
(0.055524999 2.9569808e-06 0)
(0.054834764 -2.7878244e-06 0)
(0.055482087 2.6274308e-06 0)
(0.054875231 -2.4788946e-06 0)
(0.055443939 2.3379774e-06 0)
(0.054911234 -2.207582e-06 0)
(0.05540997 2.0840672e-06 0)
(0.054943321 -1.9697866e-06 0)
(0.055379663 1.8617846e-06 0)
(0.054971981 -1.7618837e-06 0)
(0.055352557 1.6677264e-06 0)
(0.054997651 -1.5806989e-06 0)
(0.055328239 1.4989296e-06 0)
(0.055020721 -1.4234648e-06 0)
(0.055306341 1.3528193e-06 0)
(0.055041539 -1.2877795e-06 0)
(0.055286531 1.2271655e-06 0)
(0.055060424 -1.1715681e-06 0)
(0.055268507 1.1200475e-06 0)
(0.05507766 -1.0730491e-06 0)
(0.055251999 1.0298214e-06 0)
(0.055093508 -9.9070331e-07 0)
(0.055236754 9.5508936e-07 0)
(0.05510821 -9.232448e-07 0)
(0.055222543 8.9465781e-07 0)
(0.055121988 -8.6957728e-07 0)
(0.055209148 8.4757882e-07 0)
(0.055135054 -8.2821577e-07 0)
(0.055196356 8.1407935e-07 0)
(0.05514759 -7.9820362e-07 0)
(0.055183926 7.7247892e-07 0)
(0.055159985 -9.1000793e-07 0)
(0.055173192 7.0958037e-07 0)
(0.051666738 0.0063524431 0)
(0.059962662 -0.00034668992 0)
(0.057185835 0.00015334715 0)
(0.05927604 -2.478528e-06 0)
(0.0573842 6.3161455e-07 0)
(0.059176558 2.6028074e-06 0)
(0.0575815 -5.3173871e-06 0)
(0.059076919 4.7831783e-06 0)
(0.057686562 -5.1710766e-06 0)
(0.058992855 4.8690292e-06 0)
(0.057766096 -4.5927275e-06 0)
(0.058918108 4.352502e-06 0)
(0.057835942 -4.0823736e-06 0)
(0.058852082 3.8522694e-06 0)
(0.057897938 -3.6234029e-06 0)
(0.058793635 3.4138818e-06 0)
(0.057952949 -3.215923e-06 0)
(0.058741814 3.0295252e-06 0)
(0.058001778 -2.8562819e-06 0)
(0.058695808 2.6918973e-06 0)
(0.05804516 -2.5397861e-06 0)
(0.058654909 2.3953562e-06 0)
(0.058083757 -2.2618208e-06 0)
(0.058618491 2.1352289e-06 0)
(0.058118157 -2.018192e-06 0)
(0.058585999 1.9075029e-06 0)
(0.058148883 -1.8051888e-06 0)
(0.058556938 1.708692e-06 0)
(0.058176403 -1.6195595e-06 0)
(0.058530867 1.5357613e-06 0)
(0.058201135 -1.458469e-06 0)
(0.05850739 1.3860727e-06 0)
(0.058223454 -1.3194565e-06 0)
(0.058486152 1.2573418e-06 0)
(0.058243699 -1.2003957e-06 0)
(0.05846683 1.1476002e-06 0)
(0.058262176 -1.0994605e-06 0)
(0.058449132 1.055163e-06 0)
(0.058279166 -1.0150933e-06 0)
(0.05843279 9.7859625e-07 0)
(0.058294926 -9.4597392e-07 0)
(0.058417556 9.166725e-07 0)
(0.058309695 -8.9097464e-07 0)
(0.058403198 8.6841165e-07 0)
(0.058323699 -8.4853112e-07 0)
(0.05838949 8.3413606e-07 0)
(0.058337135 -8.1743445e-07 0)
(0.058376174 7.9087966e-07 0)
(0.058350381 -9.3751436e-07 0)
(0.058364416 7.2184099e-07 0)
(0.055180806 0.0064948285 0)
(0.062738769 -0.00035094554 0)
(0.060179656 0.00015692495 0)
(0.062386417 -2.8559002e-06 0)
(0.060393298 4.1027139e-07 0)
(0.062299381 2.1013737e-06 0)
(0.060599638 -5.3850623e-06 0)
(0.062192409 4.7788797e-06 0)
(0.060710921 -5.2602726e-06 0)
(0.062102743 4.9509279e-06 0)
(0.060795543 -4.6700976e-06 0)
(0.0620231 4.4286042e-06 0)
(0.060869957 -4.1521701e-06 0)
(0.061952749 3.9190237e-06 0)
(0.060936015 -3.6857862e-06 0)
(0.061890472 3.4728432e-06 0)
(0.060994629 -3.2714358e-06 0)
(0.061835255 3.0818112e-06 0)
(0.061046657 -2.905636e-06 0)
(0.061786232 2.7383613e-06 0)
(0.061092883 -2.583692e-06 0)
(0.061742651 2.4367154e-06 0)
(0.061134009 -2.3009335e-06 0)
(0.061703844 2.1721112e-06 0)
(0.061170664 -2.0531015e-06 0)
(0.061669221 1.9404657e-06 0)
(0.061203404 -1.8364234e-06 0)
(0.061638254 1.738233e-06 0)
(0.061232728 -1.6475921e-06 0)
(0.061610473 1.562326e-06 0)
(0.061259081 -1.4837238e-06 0)
(0.061585456 1.4100615e-06 0)
(0.061282863 -1.3423149e-06 0)
(0.061562825 1.2791155e-06 0)
(0.061304435 -1.2212022e-06 0)
(0.061542236 1.1674856e-06 0)
(0.061324124 -1.1185273e-06 0)
(0.061523378 1.0734568e-06 0)
(0.061342227 -1.0327042e-06 0)
(0.061505965 9.9556881e-07 0)
(0.061359018 -9.6238759e-07 0)
(0.061489734 9.3256838e-07 0)
(0.061374754 -9.0642585e-07 0)
(0.061474437 8.8344926e-07 0)
(0.061389674 -8.6318614e-07 0)
(0.061459834 8.4863027e-07 0)
(0.061403989 -8.3120544e-07 0)
(0.061445658 8.0403047e-07 0)
(0.061418063 -9.5863743e-07 0)
(0.061432884 7.2905691e-07 0)
(0.058237263 0.0065383512 0)
(0.065317449 -0.00040794831 0)
(0.063052875 0.00015553868 0)
(0.065379457 -3.4206068e-06 0)
(0.063281926 1.2779147e-07 0)
(0.065298705 1.5441532e-06 0)
(0.063496604 -5.4062242e-06 0)
(0.065183902 4.7362912e-06 0)
(0.063613808 -5.3148448e-06 0)
(0.065088733 5.001495e-06 0)
(0.063703354 -4.7172814e-06 0)
(0.065004329 4.4765485e-06 0)
(0.063782206 -4.1953077e-06 0)
(0.064929774 3.960745e-06 0)
(0.06385221 -3.7245592e-06 0)
(0.064863775 3.5095917e-06 0)
(0.063914326 -3.3060059e-06 0)
(0.064805256 3.1143771e-06 0)
(0.063969463 -2.936392e-06 0)
(0.064753301 2.7673006e-06 0)
(0.064018451 -2.6110612e-06 0)
(0.064707113 2.4624801e-06 0)
(0.064062036 -2.3253198e-06 0)
(0.064665984 2.1950927e-06 0)
(0.064100882 -2.0748716e-06 0)
(0.064629289 1.9610108e-06 0)
(0.06413558 -1.8559062e-06 0)
(0.064596469 1.7566512e-06 0)
(0.064166658 -1.6650823e-06 0)
(0.064567026 1.5788946e-06 0)
(0.064194587 -1.4994859e-06 0)
(0.064540513 1.4250296e-06 0)
(0.064219792 -1.3565867e-06 0)
(0.064516528 1.2927077e-06 0)
(0.064242654 -1.2341982e-06 0)
(0.064494707 1.1799049e-06 0)
(0.064263519 -1.1304417e-06 0)
(0.064474722 1.0848875e-06 0)
(0.064282704 -1.0437133e-06 0)
(0.064456268 1.0061779e-06 0)
(0.064300499 -9.7265071e-07 0)
(0.064439066 9.4250533e-07 0)
(0.064317175 -9.1608616e-07 0)
(0.064422856 8.9284339e-07 0)
(0.064332984 -8.7232977e-07 0)
(0.064407385 8.5770632e-07 0)
(0.064348154 -8.3966882e-07 0)
(0.064392372 8.1207782e-07 0)
(0.064363032 -9.7345035e-07 0)
(0.064378596 7.314935e-07 0)
(0.061590445 0.0065677356 0)
(0.067883214 -0.00040848666 0)
(0.065805307 0.00015477507 0)
(0.068258214 -4.136846e-06 0)
(0.06604994 -2.1089816e-07 0)
(0.068174535 9.2065687e-07 0)
(0.066272546 -5.3815551e-06 0)
(0.068051301 4.6560981e-06 0)
(0.066395323 -5.3359242e-06 0)
(0.067950731 5.0216277e-06 0)
(0.066489618 -4.7352093e-06 0)
(0.067861709 4.497162e-06 0)
(0.066572767 -4.2125835e-06 0)
(0.067783083 3.9781777e-06 0)
(0.066646594 -3.7404237e-06 0)
(0.067713478 3.5247889e-06 0)
(0.066712101 -3.3202548e-06 0)
(0.067651759 3.1278101e-06 0)
(0.066770249 -2.9491018e-06 0)
(0.067596964 2.7792366e-06 0)
(0.066821914 -2.6223843e-06 0)
(0.06754825 2.4731136e-06 0)
(0.066867881 -2.3354164e-06 0)
(0.067504872 2.2045861e-06 0)
(0.06690885 -2.0838914e-06 0)
(0.06746617 1.9695066e-06 0)
(0.066945444 -1.8639848e-06 0)
(0.067431555 1.7642763e-06 0)
(0.066978221 -1.6723417e-06 0)
(0.067400502 1.5857629e-06 0)
(0.067007677 -1.5060355e-06 0)
(0.067372538 1.4312436e-06 0)
(0.06703426 -1.3625249e-06 0)
(0.067347241 1.2983596e-06 0)
(0.067058372 -1.2396135e-06 0)
(0.067324228 1.1850779e-06 0)
(0.067080378 -1.135414e-06 0)
(0.067303149 1.0896565e-06 0)
(0.067100612 -1.0483141e-06 0)
(0.067283686 1.0106101e-06 0)
(0.067119379 -9.7694335e-07 0)
(0.067265545 9.4665786e-07 0)
(0.067136965 -9.2012501e-07 0)
(0.06724845 8.9675955e-07 0)
(0.067153637 -8.7612426e-07 0)
(0.067232136 8.6152178e-07 0)
(0.067169635 -8.4298885e-07 0)
(0.067216314 8.1517887e-07 0)
(0.067185292 -9.8205611e-07 0)
(0.067201556 7.2942074e-07 0)
(0.064652177 0.0065748092 0)
(0.070273487 -0.00045851526 0)
(0.068437412 0.00014909619 0)
(0.071018606 -4.9329078e-06 0)
(0.068698003 -4.9638431e-07 0)
(0.070926662 2.5531422e-07 0)
(0.068927552 -5.3019838e-06 0)
(0.070794483 4.5424284e-06 0)
(0.069055537 -5.3236091e-06 0)
(0.070688642 5.0126248e-06 0)
(0.069154407 -4.7247807e-06 0)
(0.070595164 4.4913573e-06 0)
(0.069241708 -4.2048477e-06 0)
(0.070512608 3.9721202e-06 0)
(0.069319226 -3.7341343e-06 0)
(0.070439521 3.519144e-06 0)
(0.069388009 -3.3148506e-06 0)
(0.070374715 3.1227399e-06 0)
(0.069449064 -2.9443579e-06 0)
(0.070317177 2.7747288e-06 0)
(0.069503313 -2.6181879e-06 0)
(0.070266024 2.4691136e-06 0)
(0.069551579 -2.331692e-06 0)
(0.070220474 2.2010347e-06 0)
(0.069594598 -2.080579e-06 0)
(0.070179834 1.9663486e-06 0)
(0.069633024 -1.8610331e-06 0)
(0.070143485 1.7614623e-06 0)
(0.069667441 -1.6697053e-06 0)
(0.070110877 1.5832488e-06 0)
(0.069698372 -1.5036739e-06 0)
(0.070081513 1.4289898e-06 0)
(0.069726285 -1.3604016e-06 0)
(0.070054949 1.2963304e-06 0)
(0.069751604 -1.2376952e-06 0)
(0.070030783 1.1832407e-06 0)
(0.069774712 -1.1336698e-06 0)
(0.070008648 1.0879806e-06 0)
(0.069795959 -1.0467146e-06 0)
(0.069988211 1.0090658e-06 0)
(0.069815666 -9.7545901e-07 0)
(0.069969162 9.4521349e-07 0)
(0.069834132 -9.1872448e-07 0)
(0.069951212 8.9537553e-07 0)
(0.069851637 -8.7474366e-07 0)
(0.069934084 8.60246e-07 0)
(0.069868435 -8.4134031e-07 0)
(0.069917482 8.135004e-07 0)
(0.069884843 -9.8458445e-07 0)
(0.069901763 7.2310986e-07 0)
(0.067813292 0.0065033078 0)
(0.072662826 -0.00045414209 0)
(0.070960873 0.00014386909 0)
(0.073654096 -5.5648601e-06 0)
(0.071226438 -6.8038332e-07 0)
(0.073554648 -4.3707899e-07 0)
(0.071461681 -5.16e-06 0)
(0.073413344 4.3990093e-06 0)
(0.071594512 -5.2782228e-06 0)