/*--------------------------------*- C++ -*----------------------------------*\
| =========                 |                                                 |
| \\      /  F ield         | OpenFOAM: The Open Source CFD Toolbox           |
|  \\    /   O peration     | Version:  2312                                  |
|   \\  /    A nd           | Website:  www.openfoam.com                      |
|    \\/     M anipulation  |                                                 |
\*---------------------------------------------------------------------------*/
FoamFile
{
    version     2.0;
    format      ascii;
    arch        "LSB;label=32;scalar=64";
    class       volScalarField;
    location    "9";
    object      p;
}
// * * * * * * * * * * * * * * * * * * * * * * * * * * * * * * * * * * * * * //

dimensions      [0 2 -2 0 0 0 0];

internalField   nonuniform List<scalar> 
4000
(
32.456062
30.963774
30.339342
29.322844
28.886326
27.995516
27.577953
26.732032
26.297837
25.478316
25.023441
24.225241
23.750971
22.971398
22.479781
21.716643
21.209623
20.461011
19.94035
19.204575
18.671858
17.947412
17.404062
16.689594
16.136892
15.431186
14.870282
14.172247
13.604176
12.912831
12.338525
11.652984
11.073284
10.392747
9.8084146
9.1321563
8.5438835
7.8712425
7.2796622
6.6100316
6.0157269
5.3485452
4.752058
4.0868008
3.48864
2.8248122
2.2254608
1.5625876
0.96250827
0.30012735
32.447074
30.961971
30.33982
29.322834
28.886315
27.995529
27.577948
26.732041
26.29783
25.478324
25.023434
24.225247
23.750965
22.971404
22.479776
21.716648
21.209619
20.461015
19.940346
19.204579
18.671854
17.947416
17.404059
16.689597
16.136889
15.431189
14.870279
14.17225
13.604174
12.912833
12.338523
11.652986
11.073282
10.392749
9.8084128
9.1321581
8.5438818
7.8712441
7.2796606
6.6100331
6.0157254
5.3485466
4.7520566
4.0868022
3.4886387
2.8248135
2.2254595
1.5625889
0.96250697
0.30012955
32.424917
30.960565
30.340655
29.322772
28.886321
27.995536
27.577956
26.73204
26.297832
25.478322
25.023435
24.225246
23.750966
22.971403
22.479777
21.716647
21.209619
20.461015
19.940347
19.204579
18.671855
17.947415
17.40406
16.689597
16.136889
15.431188
14.870279
14.172249
13.604174
12.912833
12.338523
11.652986
11.073282
10.392749
9.8084131
9.1321577
8.5438821
7.8712438
7.2796609
6.6100328
6.0157257
5.3485463
4.7520569
4.0868019
3.4886389
2.8248132
2.2254597
1.5625887
0.96250707
0.30013028
32.407702
30.959213
30.341529
29.32268
28.886328
27.995542
27.577967
26.732036
26.297837
25.478318
25.02344
24.225242
23.75097
22.971399
22.47978
21.716644
21.209622
20.461012
19.940349
19.204576
18.671857
17.947413
17.404062
16.689595
16.136891
15.431187
14.870281
14.172248
13.604176
12.912832
12.338525
11.652984
11.073284
10.392747
9.8084142
9.1321567
8.5438831
7.8712428
7.2796619
6.6100319
6.0157266
5.3485455
4.7520577
4.0868011
3.4886397
2.8248125
2.2254605
1.5625879
0.96250772
0.30013038
32.384681
30.956941
30.342333
29.322563
28.886332
27.995548
27.577976
26.732032
26.297841
25.478314
25.023443
24.225239
23.750973
22.971396
22.479783
21.716641
21.209625
20.46101
19.940351
19.204574
18.671859
17.947411
17.404063
16.689593
16.136892
15.431185
14.870282
14.172247
13.604177
12.91283
12.338526
11.652983
11.073285
10.392746
9.8084152
9.1321558
8.543884
7.871242
7.2796627
6.6100311
6.0157273
5.3485447
4.7520584
4.0868004
3.4886404
2.8248118
2.2254611
1.5625871
0.96250835
0.30013041
32.370291
30.95564
30.343075
29.322408
28.88634
27.995555
27.577983
26.732028
26.297844
25.478311
25.023446
24.225237
23.750975
22.971394
22.479785
21.716639
21.209627
20.461008
19.940353
19.204573
18.671861
17.94741
17.404065
16.689592
16.136894
15.431184
14.870284
14.172246
13.604178
12.912829
12.338527
11.652982
11.073285
10.392746
9.8084159
9.1321551
8.5438847
7.8712413
7.2796633
6.6100305
6.0157279
5.3485442
4.752059
4.0867998
3.488641
2.8248112
2.2254617
1.5625866
0.96250887
0.30013047
32.354446
30.953639
30.343615
29.322263
28.886361
27.995564
27.577989
26.732025
26.297847
25.478308
25.023448
24.225234
23.750977
22.971392
22.479787
21.716637
21.209628
20.461006
19.940354
19.204571
18.671862
17.947409
17.404066
16.689591
16.136895
15.431183
14.870284
14.172245
13.604179
12.912829
12.338527
11.652982
11.073286
10.392745
9.8084165
9.1321545
8.5438852
7.8712408
7.2796638
6.61003
6.0157284
5.3485437
4.7520595
4.0867994
3.4886414
2.8248108
2.2254621
1.5625861
0.96250933
0.30013053
32.337418
30.952737
30.343636
29.322323
28.886427
27.995579
27.577996
26.732022
26.297849
25.478306
25.02345
24.225233
23.750979
22.971391
22.479789
21.716636
21.20963
20.461005
19.940356
19.20457
18.671863
17.947408
17.404067
16.68959
16.136896
15.431182
14.870285
14.172244
13.604179
12.912828
12.338528
11.652981
11.073287
10.392744
9.808417
9.132154
8.5438857
7.8712403
7.2796643
6.6100295
6.0157289
5.3485433
4.7520599
4.086799
3.4886418
2.8248104
2.2254625
1.5625856
0.96250975
0.30013056
32.320871
30.95089
30.342847
29.322686
28.886527
27.995598
27.578002
26.732019
26.29785
25.478303
25.023451
24.225231
23.75098
22.971389
22.47979
21.716635
21.209631
20.461004
19.940357
19.204569
18.671864
17.947407
17.404068
16.689589
16.136896
15.431181
14.870286
14.172243
13.60418
12.912827
12.338528
11.652981
11.073287
10.392744
9.8084175
9.1321535
8.5438862
7.8712399
7.2796647
6.6100292
6.0157292
5.3485429
4.7520602
4.0867986
3.4886422
2.8248101
2.2254628
1.5625853
0.96251015
0.30013058
32.301758
30.949238
30.34234
29.322985
28.886578
27.995606
27.578004
26.732015
26.297851
25.478301
25.023453
24.225229
23.750982
22.971388
22.479791
21.716633
21.209632
20.461003
19.940358
19.204568
18.671865
17.947406
17.404069
16.689588
16.136897
15.431181
14.870287
14.172243
13.604181
12.912827
12.338529
11.65298
11.073288
10.392744
9.8084179
9.1321531
8.5438865
7.8712395
7.279665
6.6100288
6.0157296
5.3485426
4.7520606
4.0867983
3.4886425
2.8248098
2.2254631
1.5625849
0.96251053
0.30013059
32.290358
30.946545
30.342674
29.322795
28.886531
27.99559
27.577998
26.732009
26.297851
25.478299
25.023454
24.225228
23.750983
22.971387
22.479792
21.716632
21.209633
20.461002
19.940359
19.204567
18.671865
17.947405
17.404069
16.689588
16.136898
15.43118
14.870287
14.172242
13.604181
12.912826
12.338529
11.65298
11.073288
10.392743
9.8084183
9.1321528
8.5438869
7.8712392
7.2796654
6.6100285
6.0157299
5.3485423
4.7520609
4.086798
3.4886427
2.8248095
2.2254634
1.5625846
0.96251088
0.30013058
32.276129
30.94439
30.34307
29.322182
28.886415
27.99555
27.577983
26.732
26.29785
25.478297
25.023454
24.225227
23.750984
22.971386
22.479793
21.716632
21.209634
20.461001
19.940359
19.204567
18.671866
17.947405
17.40407
16.689587
16.136898
15.43118
14.870288
14.172242
13.604182
12.912826
12.33853
11.652979
11.073288
10.392743
9.8084186
9.1321524
8.5438872
7.8712389
7.2796657
6.6100282
6.0157301
5.348542
4.7520611
4.0867978
3.488643
2.8248092
2.2254636
1.5625843
0.96251122
0.30013056
32.265791
30.941889
30.342744
29.321596
28.886305
27.995505
27.577966
26.731991
26.297848
25.478294
25.023455
24.225225
23.750985
22.971385
22.479794
21.716631
21.209634
20.461
19.94036
19.204566
18.671867
17.947404
17.40407
16.689587
16.136899
15.431179
14.870288
14.172241
13.604182
12.912826
12.33853
11.652979
11.073289
10.392742
9.808419
9.1321522
8.5438875
7.8712386
7.2796659
6.610028
6.0157304
5.3485418
4.7520613
4.0867976
3.4886432
2.824809
2.2254638
1.5625841
0.96251154
0.30013054
32.2532
30.939364
30.341802
29.321331
28.886252
27.995472
27.577952
26.731982
26.297847
25.478292
25.023456
24.225224
23.750986
22.971384
22.479795
21.71663
21.209635
20.461
19.940361
19.204565
18.671867
17.947404
17.404071
16.689586
16.136899
15.431179
14.870288
14.172241
13.604182
12.912825
12.338531
11.652979
11.073289
10.392742
9.8084192
9.1321519
8.5438877
7.8712384
7.2796662
6.6100277
6.0157306
5.3485415
4.7520616
4.0867973
3.4886434
2.8248088
2.225464
1.5625838
0.96251184
0.30013051
32.244434
30.936494
30.340228
29.321333
28.886233
27.99545
27.577941
26.731975
26.297845
25.47829
25.023456
24.225223
23.750986
22.971383
22.479795
21.716629
21.209636
20.460999
19.940361
19.204565
18.671868
17.947403
17.404071
16.689586
16.1369
15.431178
14.870289
14.172241
13.604183
12.912825
12.338531
11.652978
11.073289
10.392742
9.8084195
9.1321516
8.543888
7.8712382
7.2796664
6.6100275
6.0157308
5.3485413
4.7520618
4.0867972
3.4886436
2.8248086
2.2254642
1.5625836
0.96251213
0.30013048
32.234171
30.93369
30.338524
29.321335
28.886173
27.995417
27.577924
26.731965
26.297842
25.478287
25.023456
24.225222
23.750987
22.971382
22.479796
21.716629
21.209636
20.460999
19.940362
19.204564
18.671868
17.947403
17.404072
16.689585
16.1369
15.431178
14.870289
14.17224
13.604183
12.912825
12.338531
11.652978
11.07329
10.392742
9.8084197
9.1321514
8.5438882
7.871238
7.2796666
6.6100273
6.015731
5.3485412
4.7520619
4.086797
3.4886438
2.8248084
2.2254644
1.5625834
0.9625124
0.30013044
32.226945
30.930721
30.337076
29.321078
28.886011
27.99536
27.577897
26.731952
26.297838
25.478284
25.023456
24.225221
23.750987
22.971381
22.479797
21.716628
21.209637
20.460998
19.940362
19.204564
18.671869
17.947402
17.404072
16.689585
16.1369
15.431178
14.870289
14.17224
13.604183
12.912824
12.338531
11.652978
11.07329
10.392741
9.8084199
9.1321512
8.5438884
7.8712378
7.2796667
6.6100272
6.0157312
5.348541
4.7520621
4.0867968
3.488644
2.8248083
2.2254645
1.5625833
0.96251266
0.3001304
32.21857
30.927739
30.336178
29.320547
28.88576
27.995285
27.577863
26.731937
26.297832
25.478281
25.023455
24.225219
23.750988
22.971381
22.479797
21.716627
21.209637
20.460998
19.940363
19.204563
18.671869
17.947402
17.404073
16.689584
16.136901
15.431177
14.87029
14.17224
13.604183
12.912824
12.338532
11.652978
11.07329
10.392741
9.8084201
9.132151
8.5438886
7.8712376
7.2796669
6.610027
6.0157313
5.3485408
4.7520622
4.0867967
3.4886441
2.8248081
2.2254647
1.5625831
0.96251291
0.30013035
32.212594
30.924885
30.335456
29.319962
28.88551
27.995216
27.577831
26.731924
26.297827
25.478277
25.023455
24.225218
23.750988
22.97138
22.479798
21.716627
21.209638
20.460997
19.940363
19.204563
18.67187
17.947401
17.404073
16.689584
16.136901
15.431177
14.87029
14.172239
13.604184
12.912824
12.338532
11.652977
11.07329
10.392741
9.8084203
9.1321509
8.5438887
7.8712374
7.2796671
6.6100268
6.0157315
5.3485407
4.7520624
4.0867965
3.4886442
2.824808
2.2254648
1.562583
0.96251315
0.30013031
32.205894
30.922185
30.334683
29.319501
28.885324
27.995165
27.577807
26.731916
26.297824
25.478275
25.023454
24.225217
23.750988
22.971379
22.479798
21.716626
21.209638
20.460997
19.940364
19.204563
18.67187
17.947401
17.404073
16.689584
16.136901
15.431177
14.87029
14.172239
13.604184
12.912824
12.338532
11.652977
11.07329
10.392741
9.8084205
9.1321507
8.5438889
7.8712373
7.2796672
6.6100267
6.0157316
5.3485406
4.7520625
4.0867964
3.4886444
2.8248079
2.2254649
1.5625829
0.96251337
0.30013026
32.201029
30.91986
30.333738
29.319145
28.885192
27.995127
27.577789
26.731913
26.297822
25.478273
25.023454
24.225216
23.750988
22.971379
22.479798
21.716626
21.209639
20.460996
19.940364
19.204562
18.67187
17.947401
17.404073
16.689584
16.136901
15.431177
14.87029
14.172239
13.604184
12.912823
12.338532
11.652977
11.073291
10.392741
9.8084206
9.1321506
8.543889
7.8712372
7.2796673
6.6100266
6.0157317
5.3485405
4.7520626
4.0867963
3.4886445
2.8248078
2.225465
1.5625828
0.96251358
0.30013022
32.195778
30.917606
30.332809
29.318837
28.885085
27.995098
27.577774
26.731914
26.297822
25.478272
25.023454
24.225216
23.750989
22.971378
22.479799
21.716625
21.209639
20.460996
19.940364
19.204562
18.67187
17.947401
17.404074
16.689583
16.136902
15.431176
14.870291
14.172239
13.604184
12.912823
12.338532
11.652977
11.073291
10.392741
9.8084208
9.1321504
8.5438892
7.871237
7.2796675
6.6100265
6.0157319
5.3485403
4.7520627
4.0867962
3.4886446
2.8248076
2.2254651
1.5625827
0.96251378
0.30013017
32.191832
30.91575
30.331897
29.318546
28.884991
27.995072
27.577759
26.731916
26.297822
25.478272
25.023454
24.225215
23.750989
22.971378
22.479799
21.716625
21.209639
20.460996
19.940365
19.204562
18.671871
17.9474
17.404074
16.689583
16.136902
15.431176
14.870291
14.172239
13.604184
12.912823
12.338533
11.652977
11.073291
10.39274
9.8084209
9.1321503
8.5438893
7.8712369
7.2796676
6.6100264
6.015732
5.3485402
4.7520628
4.0867961
3.4886447
2.8248076
2.2254652
1.5625826
0.96251397
0.30013012
32.187778
30.913846
30.331097
29.318282
28.884906
27.995049
27.577743
26.731919
26.297822
25.478271
25.023455
24.225215
23.750989
22.971377
22.479799
21.716625
21.20964
20.460995
19.940365
19.204562
18.671871
17.9474
17.404074
16.689583
16.136902
15.431176
14.870291
14.172238
13.604185
12.912823
12.338533
11.652977
11.073291
10.39274
9.808421
9.1321502
8.5438894
7.8712368
7.2796677
6.6100263
6.0157321
5.3485401
4.7520629
4.086796
3.4886448
2.8248075
2.2254653
1.5625825
0.96251415
0.30013008
32.184569
30.91239
30.330351
29.318043
28.884831
27.995029
27.577727
26.731922
26.297823
25.478271
25.023455
24.225214
23.75099
22.971377
22.4798
21.716624
21.20964
20.460995
19.940365
19.204561
18.671871
17.9474
17.404074
16.689583
16.136902
15.431176
14.870291
14.172238
13.604185
12.912823
12.338533
11.652976
11.073291
10.39274
9.8084211
9.1321501
8.5438895
7.8712367
7.2796678
6.6100262
6.0157321
5.3485401
4.752063
4.0867959
3.4886448
2.8248074
2.2254653
1.5625824
0.96251431
0.30013004
32.18149
30.910815
30.329709
29.317838
28.884767
27.995013
27.577712
26.731924
26.297824
25.478272
25.023456
24.225214
23.75099
22.971376
22.4798
21.716624
21.20964
20.460995
19.940365
19.204561
18.671871
17.9474
17.404075
16.689583
16.136902
15.431176
14.870291
14.172238
13.604185
12.912823
12.338533
11.652976
11.073291
10.39274
9.8084212
9.13215
8.5438896
7.8712366
7.2796679
6.6100261
6.0157322
5.34854
4.7520631
4.0867958
3.4886449
2.8248073
2.2254654
1.5625824
0.96251447
0.30012999
32.178856
30.909731
30.329128
29.31766
28.884713
27.995
27.5777
26.731926
26.297825
25.478273
25.023456
24.225214
23.75099
22.971376
22.4798
21.716624
21.20964
20.460994
19.940365
19.204561
18.671872
17.947399
17.404075
16.689582
16.136903
15.431175
14.870292
14.172238
13.604185
12.912823
12.338533
11.652976
11.073291
10.39274
9.8084213
9.1321499
8.5438897
7.8712365
7.2796679
6.610026
6.0157323
5.3485399
4.7520632
4.0867958
3.488645
2.8248072
2.2254655
1.5625823
0.96251461
0.30012995
32.176576
30.90846
30.328637
29.317513
28.884671
27.99499
27.577689
26.731928
26.297825
25.478274
25.023457
24.225213
23.75099
22.971376
22.4798
21.716623
21.209641
20.460994
19.940366
19.204561
18.671872
17.947399
17.404075
16.689582
16.136903
15.431175
14.870292
14.172238
13.604185
12.912822
12.338533
11.652976
11.073291
10.39274
9.8084214
9.1321498
8.5438897
7.8712365
7.279668
6.6100259
6.0157324
5.3485398
4.7520632
4.0867957
3.488645
2.8248072
2.2254655
1.5625823
0.96251474
0.30012992
32.174362
30.907693
30.328209
29.317389
28.884638
27.994983
27.577681
26.731929
26.297825
25.478276
25.023458
24.225213
23.750991
22.971375
22.4798
21.716623
21.209641
20.460994
19.940366
19.20456
18.671872
17.947399
17.404075
16.689582
16.136903
15.431175
14.870292
14.172238
13.604185
12.912822
12.338533
11.652976
11.073292
10.39274
9.8084215
9.1321497
8.5438898
7.8712364
7.2796681
6.6100259
6.0157324
5.3485398
4.7520633
4.0867956
3.4886451
2.8248071
2.2254656
1.5625822
0.96251487
0.30012988
32.172785
30.906681
30.327852
29.317291
28.884613
27.994978
27.577674
26.73193
26.297824
25.478278
25.023459
24.225213
23.750991
22.971375
22.479801
21.716623
21.209641
20.460994
19.940366
19.20456
18.671872
17.947399
17.404075
16.689582
16.136903
15.431175
14.870292
14.172238
13.604185
12.912822
12.338533
11.652976
11.073292
10.39274
9.8084216
9.1321497
8.5438899
7.8712363
7.2796681
6.6100258
6.0157325
5.3485397
4.7520633
4.0867956
3.4886452
2.8248071
2.2254656
1.5625822
0.96251497
0.30012985
32.170806
30.906136
30.327552
29.317213
28.884596
27.994975
27.57767
26.731932
26.297823
25.47828
25.023459
24.225213
23.750991
22.971375
22.479801
21.716623
21.209641
20.460994
19.940366
19.20456
18.671872
17.947399
17.404075
16.689582
16.136903
15.431175
14.870292
14.172238
13.604185
12.912822
12.338533
11.652976
11.073292
10.39274
9.8084216
9.1321496
8.5438899
7.8712363
7.2796682
6.6100258
6.0157325
5.3485397
4.7520634
4.0867955
3.4886452
2.824807
2.2254657
1.5625822
0.96251507
0.30012982
32.169773
30.905363
30.327312
29.317158
28.884587
27.994975
27.577667
26.731934
26.297821
25.478282
25.02346
24.225213
23.750991
22.971375
22.479801
21.716622
21.209641
20.460993
19.940366
19.20456
18.671872
17.947399
17.404075
16.689582
16.136903
15.431175
14.870292
14.172237
13.604186
12.912822
12.338533
11.652976
11.073292
10.39274
9.8084217
9.1321495
8.54389
7.8712362
7.2796682
6.6100257
6.0157326
5.3485396
4.7520634
4.0867955
3.4886452
2.824807
2.2254657
1.5625821
0.96251515
0.30012979
32.168074
30.905004
30.327128
29.317121
28.884584
27.994977
27.577665
26.731936
26.297819
25.478285
25.023461
24.225213
23.750991
22.971374
22.479801
21.716622
21.209641
20.460993
19.940366
19.20456
18.671872
17.947399
17.404075
16.689582
16.136903
15.431175
14.870292
14.172237
13.604186
12.912822
12.338534
11.652976
11.073292
10.39274
9.8084217
9.1321495
8.54389
7.8712362
7.2796683
6.6100257
6.0157326
5.3485396
4.7520635
4.0867955
3.4886453
2.8248069
2.2254658
1.5625821
0.96251522
0.30012977
32.167391
30.904448
30.327
29.317104
28.884588
27.994981
27.577664
26.731939
26.297817
25.478286
25.023462
24.225214
23.750992
22.971374
22.479801
21.716622
21.209641
20.460993
19.940366
19.20456
18.671872
17.947398
17.404076
16.689582
16.136903
15.431175
14.870292
14.172237
13.604186
12.912822
12.338534
11.652976
11.073292
10.39274
9.8084218
9.1321494
8.5438901
7.8712361
7.2796683
6.6100256
6.0157327
5.3485396
4.7520635
4.0867954
3.4886453
2.8248069
2.2254658
1.5625821
0.96251527
0.30012976
32.16609
30.904266
30.326917
29.317101
28.884597
27.994987
27.577665
26.731942
26.297815
25.478288
25.023463
24.225214
23.750992
22.971374
22.479801
21.716622
21.209641
20.460993
19.940366
19.20456
18.671873
17.947398
17.404076
16.689582
16.136903
15.431175
14.870292
14.172237
13.604186
12.912822
12.338534
11.652976
11.073292
10.39274
9.8084218
9.1321494
8.5438901
7.8712361
7.2796684
6.6100256
6.0157327
5.3485395
4.7520635
4.0867954
3.4886453
2.8248069
2.2254658
1.5625821
0.96251531
0.30012975
32.165734
30.903873
30.326871
29.317111
28.884609
27.994994
27.577667
26.731944
26.297814
25.478289
25.023464
24.225214
23.750992
22.971374
22.479801
21.716622
21.209641
20.460993
19.940367
19.20456
18.671873
17.947398
17.404076
16.689581
16.136903
15.431175
14.870292
14.172237
13.604186
12.912822
12.338534
11.652976
11.073292
10.392739
9.8084218
9.1321494
8.5438901
7.8712361
7.2796684
6.6100256
6.0157327
5.3485395
4.7520636
4.0867954
3.4886453
2.8248069
2.2254658
1.5625821
0.96251532
0.30012975
32.164816
30.903817
30.326854
29.317126
28.884623
27.995001
27.577669
26.731947
26.297814
25.478289
25.023465
24.225215
23.750992
22.971374
22.479801
21.716622
21.209641
20.460993
19.940367
19.20456
18.671873
17.947398
17.404076
16.689581
16.136903
15.431175
14.870292
14.172237
13.604186
12.912822
12.338534
11.652976
11.073292
10.392739
9.8084219
9.1321494
8.5438902
7.8712361
7.2796684
6.6100256
6.0157327
5.3485395
4.7520636
4.0867954
3.4886454
2.8248069
2.2254658
1.5625821
0.9625153
0.30012975
32.164797
30.903525
30.326851
29.317145
28.884636
27.995007
27.577671
26.731948
26.297813
25.478289
25.023466
24.225215
23.750993
22.971374
22.479801
21.716622
21.209641
20.460993
19.940367
19.204559
18.671873
17.947398
17.404076
16.689581
16.136903
15.431175
14.870292
14.172237
13.604186
12.912822
12.338534
11.652976
11.073292
10.392739
9.8084219
9.1321494
8.5438902
7.871236
7.2796684
6.6100255
6.0157327
5.3485395
4.7520636
4.0867954
3.4886454
2.8248069
2.2254658
1.5625821
0.96251526
0.30012977
32.16422
30.903556
30.326857
29.31716
28.884646
27.995012
27.577673
26.73195
26.297813
25.478289
25.023466
24.225215
23.750993
22.971374
22.479801
21.716622
21.209641
20.460993
19.940367
19.204559
18.671873
17.947398
17.404076
16.689581
16.136904
15.431175
14.870292
14.172237
13.604186
12.912822
12.338534
11.652976
11.073292
10.392739
9.8084219
9.1321493
8.5438902
7.871236
7.2796684
6.6100256
6.0157327
5.3485395
4.7520636
4.0867954
3.4886453
2.8248069
2.2254658
1.5625821
0.96251521
0.3001298
32.164484
30.903367
30.326859
29.31717
28.884652
27.995014
27.577674
26.73195
26.297813
25.47829
25.023466
24.225215
23.750993
22.971374
22.479801
21.716622
21.209641
20.460993
19.940367
19.204559
18.671873
17.947398
17.404076
16.689581
16.136904
15.431175
14.870292
14.172237
13.604186
12.912822
12.338534
11.652976
11.073292
10.392739
9.8084219
9.1321494
8.5438902
7.871236
7.2796684
6.6100256
6.0157327
5.3485395
4.7520635
4.0867954
3.4886453
2.8248069
2.2254658
1.5625821
0.96251517
0.30012981
32.164149
30.903483
30.326859
29.317169
28.884652
27.995014
27.577674
26.73195
26.297813
25.47829
25.023466
24.225215
23.750993
22.971374
22.479801
21.716622
21.209641
20.460993
19.940367
19.204559
18.671873
17.947398
17.404076
16.689581
16.136904
15.431175
14.870292
14.172237
13.604186
12.912822
12.338534
11.652976
11.073292
10.392739
9.8084219
9.1321494
8.5438902
7.871236
7.2796684
6.6100256
6.0157327
5.3485395
4.7520635
4.0867954
3.4886453
2.8248069
2.2254658
1.5625821
0.96251517
0.30012981
32.164641
30.903363
30.326849
29.317161
28.884646
27.995012
27.577673
26.73195
26.297813
25.478289
25.023466
24.225215
23.750993
22.971374
22.479801
21.716622
21.209641
20.460993
19.940367
19.204559
18.671873
17.947398
17.404076
16.689581
16.136904
15.431175
14.870292
14.172237
13.604186
12.912822
12.338534
11.652976
11.073292
10.392739
9.8084219
9.1321493
8.5438902
7.871236
7.2796684
6.6100256
6.0157327
5.3485395
4.7520636
4.0867954
3.4886453
2.8248069
2.2254658
1.5625821
0.96251521
0.3001298
32.164536
30.903572
30.326842
29.317144
28.884636
27.995007
27.577671
26.731948
26.297813
25.478289
25.023466
24.225215
23.750993
22.971374
22.479801
21.716622
21.209641
20.460993
19.940367
19.204559
18.671873
17.947398
17.404076
16.689581
16.136903
15.431175
14.870292
14.172237
13.604186
12.912822
12.338534
11.652976
11.073292
10.392739
9.8084219
9.1321494
8.5438902
7.871236
7.2796684
6.6100255
6.0157327
5.3485395
4.7520636
4.0867954
3.4886454
2.8248069
2.2254658
1.5625821
0.96251526
0.30012977
32.165315
30.90356
30.326838
29.317127
28.884623
27.995001
27.577669
26.731947
26.297814
25.478289
25.023465
24.225215
23.750992
22.971374
22.479801
21.716622
21.209641
20.460993
19.940367
19.20456
18.671873
17.947398
17.404076
16.689581
16.136903
15.431175
14.870292
14.172237
13.604186
12.912822
12.338534
11.652976
11.073292
10.392739
9.8084219
9.1321494
8.5438902
7.8712361
7.2796684
6.6100256
6.0157327
5.3485395
4.7520636
4.0867954
3.4886454
2.8248069
2.2254658
1.5625821
0.9625153
0.30012975
32.16553
30.903863
30.326856
29.317111
28.884609
27.994994
27.577667
26.731944
26.297814
25.478289
25.023464
24.225214
23.750992
22.971374
22.479801
21.716622
21.209641
20.460993
19.940367
19.20456
18.671873
17.947398
17.404076
16.689581
16.136903
15.431175
14.870292
14.172237
13.604186
12.912822
12.338534
11.652976
11.073292
10.392739
9.8084218
9.1321494
8.5438901
7.8712361
7.2796684
6.6100256
6.0157327
5.3485395
4.7520636
4.0867954
3.4886453
2.8248069
2.2254658
1.5625821
0.96251532
0.30012975
32.166682
30.903948
30.326897
29.317103
28.884598
27.994987
27.577665
26.731942
26.297815
25.478288
25.023463
24.225214
23.750992
22.971374
22.479801
21.716622
21.209641
20.460993
19.940366
19.20456
18.671873
17.947398
17.404076
16.689582
16.136903
15.431175
14.870292
14.172237
13.604186
12.912822
12.338534
11.652976
11.073292
10.39274
9.8084218
9.1321494
8.5438901
7.8712361
7.2796684
6.6100256
6.0157327
5.3485395
4.7520635
4.0867954
3.4886453
2.8248069
2.2254658
1.5625821
0.96251531
0.30012975
32.167223
30.904377
30.326979
29.317105
28.884589
27.994982
27.577665
26.731939
26.297817
25.478286
25.023462
24.225214
23.750992
22.971374
22.479801
21.716622
21.209641
20.460993
19.940366
19.20456
18.671872
17.947398
17.404076
16.689582
16.136903
15.431175
14.870292
14.172237
13.604186
12.912822
12.338534
11.652976
11.073292
10.39274
9.8084218
9.1321494
8.5438901
7.8712361
7.2796683
6.6100256
6.0157327
5.3485396
4.7520635
4.0867954
3.4886453
2.8248069
2.2254658
1.5625821
0.96251527
0.30012976
32.168782
30.90462
30.327104
29.317125
28.884586
27.994978
27.577665
26.731937
26.297819
25.478285
25.023461
24.225213
23.750991
22.971374
22.479801
21.716622
21.209641
20.460993
19.940366
19.20456
18.671872
17.947399
17.404075
16.689582
16.136903
15.431175
14.870292
14.172237
13.604186
12.912822
12.338534
11.652976
11.073292
10.39274
9.8084217
9.1321495
8.54389
7.8712362
7.2796683
6.6100257
6.0157326
5.3485396
4.7520635
4.0867955
3.4886453
2.8248069
2.2254658
1.5625821
0.96251522
0.30012977
32.169639
30.90524
30.327287
29.317161
28.884589
27.994976
27.577667
26.731934
26.297821
25.478282
25.02346
24.225213
23.750991
22.971375
22.479801
21.716622
21.209641
20.460993
19.940366
19.20456
18.671872
17.947399
17.404075
16.689582
16.136903
15.431175
14.870292
14.172237
13.604186
12.912822
12.338533
11.652976
11.073292
10.39274
9.8084217
9.1321495
8.54389
7.8712362
7.2796682
6.6100257
6.0157326
5.3485396
4.7520634
4.0867955
3.4886452
2.824807
2.2254657
1.5625821
0.96251515
0.30012979
32.171562
30.905664
30.327522
29.317219
28.884599
27.994976
27.57767
26.731932
26.297823
25.47828
25.023459
24.225213
23.750991
22.971375
22.479801
21.716623
21.209641
20.460994
19.940366
19.20456
18.671872
17.947399
17.404075
16.689582
16.136903
15.431175
14.870292
14.172238
13.604185
12.912822
12.338533
11.652976
11.073292
10.39274
9.8084216
9.1321496
8.5438899
7.8712363
7.2796682
6.6100258
6.0157325
5.3485397
4.7520634
4.0867955
3.4886452
2.824807
2.2254657
1.5625822
0.96251507
0.30012982
32.172832
30.906521
30.327822
29.317296
28.884616
27.994979
27.577675
26.731931
26.297824
25.478278
25.023459
24.225213
23.750991
22.971375
22.479801
21.716623
21.209641
20.460994
19.940366
19.20456
18.671872
17.947399
17.404075
16.689582
16.136903
15.431175
14.870292
14.172238
13.604185
12.912822
12.338533
11.652976
11.073292
10.39274
9.8084216
9.1321497
8.5438899
7.8712363
7.2796681
6.6100258
6.0157325
5.3485397
4.7520633
4.0867956
3.4886452
2.8248071
2.2254656
1.5625822
0.96251497
0.30012985
32.174982
30.907125
30.328176
29.317398
28.884641
27.994984
27.577682
26.731929
26.297825
25.478276
25.023458
24.225213
23.750991
22.971375
22.4798
21.716623
21.209641
20.460994
19.940366
19.20456
18.671872
17.947399
17.404075
16.689582
16.136903
15.431175
14.870292
14.172238
13.604185
12.912822
12.338533
11.652976
11.073292
10.39274
9.8084215
9.1321497
8.5438898
7.8712364
7.2796681
6.6100259
6.0157324
5.3485398
4.7520633
4.0867956
3.4886451
2.8248071
2.2254656
1.5625822
0.96251487
0.30012988
32.176916
30.908241
30.328601
29.31752
28.884675
27.994991
27.57769
26.731928
26.297825
25.478274
25.023457
24.225213
23.75099
22.971376
22.4798
21.716623
21.209641
20.460994
19.940366
19.204561
18.671872
17.947399
17.404075
16.689582
16.136903
15.431175
14.870292
14.172238
13.604185
12.912822
12.338533
11.652976
11.073291
10.39274
9.8084214
9.1321498
8.5438897
7.8712365
7.279668
6.6100259
6.0157324
5.3485398
4.7520632
4.0867957
3.488645
2.8248072
2.2254655
1.5625823
0.96251474
0.30012992
32.179377
30.909104
30.329095
29.317671
28.884718
27.995002
27.577701
26.731927
26.297825
25.478273
25.023456
24.225214
23.75099
22.971376
22.4798
21.716624
21.20964
20.460994
19.940365
19.204561
18.671872
17.947399
17.404075
16.689582
16.136903
15.431175
14.870292
14.172238
13.604185
12.912823
12.338533
11.652976
11.073291
10.39274
9.8084213
9.1321499
8.5438897
7.8712365
7.2796679
6.610026
6.0157323
5.3485399
4.7520632
4.0867958
3.488645
2.8248072
2.2254655
1.5625823
0.96251461
0.30012995
32.182054
30.910511
30.329663
29.317847
28.884771
27.995015
27.577713
26.731925
26.297824
25.478272
25.023456
24.225214
23.75099
22.971376
22.4798
21.716624
21.20964
20.460995
19.940365
19.204561
18.671871
17.9474
17.404075
16.689583
16.136902
15.431176
14.870291
14.172238
13.604185
12.912823
12.338533
11.652976
11.073291
10.39274
9.8084212
9.13215
8.5438896
7.8712366
7.2796679
6.6100261
6.0157322
5.34854
4.7520631
4.0867958
3.4886449
2.8248073
2.2254654
1.5625824
0.96251447
0.30012999
32.185024
30.911717
30.330319
29.318057
28.884836
27.995031
27.577728
26.731922
26.297823
25.478271
25.023455
24.225214
23.75099
22.971377
22.4798
21.716624
21.20964
20.460995
19.940365
19.204561
18.671871
17.9474
17.404074
16.689583
16.136902
15.431176
14.870291
14.172238
13.604185
12.912823
12.338533
11.652976
11.073291
10.39274
9.8084211
9.1321501
8.5438895
7.8712367
7.2796678
6.6100262
6.0157321
5.3485401
4.752063
4.0867959
3.4886448
2.8248074
2.2254653
1.5625824
0.96251431
0.30013004
32.188589
30.91345
30.33104
29.318292
28.884911
27.995051
27.577744
26.73192
26.297823
25.478271
25.023455
24.225215
23.750989
22.971377
22.479799
21.716625
21.20964
20.460995
19.940365
19.204562
18.671871
17.9474
17.404074
16.689583
16.136902
15.431176
14.870291
14.172238
13.604185
12.912823
12.338533
11.652977
11.073291
10.39274
9.808421
9.1321502
8.5438894
7.8712368
7.2796677
6.6100263
6.0157321
5.3485401
4.7520629
4.086796
3.4886448
2.8248075
2.2254653
1.5625825
0.96251415
0.30013008
32.192214
30.915038
30.331866
29.318561
28.884996
27.995074
27.57776
26.731917
26.297822
25.478272
25.023454
24.225215
23.750989
22.971378
22.479799
21.716625
21.209639
20.460996
19.940365
19.204562
18.671871
17.9474
17.404074
16.689583
16.136902
15.431176
14.870291
14.172239
13.604184
12.912823
12.338533
11.652977
11.073291
10.39274
9.8084209
9.1321503
8.5438893
7.8712369
7.2796676
6.6100264
6.015732
5.3485402
4.7520628
4.0867961
3.4886447
2.8248076
2.2254652
1.5625826
0.96251397
0.30013012
32.196875
30.917113
30.332743
29.318848
28.88509
27.995099
27.577775
26.731915
26.297822
25.478272
25.023454
24.225216
23.750989
22.971378
22.479799
21.716625
21.209639
20.460996
19.940364
19.204562
18.67187
17.947401
17.404074
16.689583
16.136902
15.431176
14.870291
14.172239
13.604184