/*--------------------------------*- C++ -*----------------------------------*\
| =========                 |                                                 |
| \\      /  F ield         | OpenFOAM: The Open Source CFD Toolbox           |
|  \\    /   O peration     | Version:  2312                                  |
|   \\  /    A nd           | Website:  www.openfoam.com                      |
|    \\/     M anipulation  |                                                 |
\*---------------------------------------------------------------------------*/
FoamFile
{
    version     2.0;
    format      ascii;
    arch        "LSB;label=32;scalar=64";
    class       volSymmTensorField;
    location    "9";
    object      sigma;
}
// * * * * * * * * * * * * * * * * * * * * * * * * * * * * * * * * * * * * * //

dimensions      [0 2 -2 0 0 0 0];

internalField   nonuniform List<symmTensor> 
4000
(
(-2.2613246 -1.0108282 0 -0.40771246 0 0)
(-5.6685315 -0.44158995 0 -0.0029512212 0 0)
(-2.9244817 -0.31335295 0 -0.00086349663 0 0)
(-3.1202205 -0.32242623 0 1.1436265e-05 0 0)
(-2.9360743 -0.31268007 0 2.0716437e-05 0 0)
(-3.0380737 -0.31849497 0 -5.4130754e-05 0 0)
(-2.9203356 -0.31180817 0 3.469601e-05 0 0)
(-3.0026743 -0.31657298 0 -4.2854593e-05 0 0)
(-2.9231146 -0.31196212 0 3.8300212e-05 0 0)
(-2.9937162 -0.31607703 0 -3.7529581e-05 0 0)
(-2.9274736 -0.31221382 0 3.5125404e-05 0 0)
(-2.9889651 -0.3158064 0 -3.3435301e-05 0 0)
(-2.9310589 -0.31242326 0 3.1409671e-05 0 0)
(-2.9852908 -0.31559448 0 -2.9727752e-05 0 0)
(-2.9342153 -0.31260794 0 2.7971423e-05 0 0)
(-2.9821565 -0.31541297 0 -2.6421768e-05 0 0)
(-2.9370599 -0.3127742 0 2.48912e-05 0 0)
(-2.9794025 -0.31525328 0 -2.3500541e-05 0 0)
(-2.9396131 -0.31292327 0 2.2158121e-05 0 0)
(-2.9769603 -0.31511158 0 -2.0923537e-05 0 0)
(-2.9418963 -0.31305647 0 1.9743611e-05 0 0)
(-2.9747874 -0.31498549 0 -1.865358e-05 0 0)
(-2.9439351 -0.31317532 0 1.7617118e-05 0 0)
(-2.9728507 -0.31487312 0 -1.6658348e-05 0 0)
(-2.9457562 -0.31328138 0 1.5749725e-05 0 0)
(-2.971122 -0.31477286 0 -1.4909281e-05 0 0)
(-2.9473845 -0.3133761 0 1.4114991e-05 0 0)
(-2.969576 -0.31468327 0 -1.3380968e-05 0 0)
(-2.9488434 -0.31346083 0 1.2689153e-05 0 0)
(-2.9681897 -0.31460305 0 -1.2050867e-05 0 0)
(-2.9501541 -0.3135368 0 1.1451121e-05 0 0)
(-2.9669427 -0.31453102 0 -1.0899136e-05 0 0)
(-2.951336 -0.31360513 0 1.038239e-05 0 0)
(-2.9658163 -0.31446612 0 -9.9084845e-06 0 0)
(-2.9524066 -0.31366683 0 9.4669101e-06 0 0)
(-2.9647936 -0.31440737 0 -9.0640127e-06 0 0)
(-2.9533818 -0.31372283 0 8.6909434e-06 0 0)
(-2.9638593 -0.31435391 0 -8.353069e-06 0 0)
(-2.954276 -0.31377395 0 8.042926e-06 0 0)
(-2.9629995 -0.31430494 0 -7.7651193e-06 0 0)
(-2.9551026 -0.31382095 0 7.5133763e-06 0 0)
(-2.9622014 -0.31425973 0 -7.2917139e-06 0 0)
(-2.9558737 -0.31386453 0 7.0947905e-06 0 0)
(-2.9614531 -0.31421761 0 -6.9269587e-06 0 0)
(-2.9565995 -0.31390526 0 6.7816916e-06 0 0)
(-2.9607412 -0.31417784 0 -6.6659052e-06 0 0)
(-2.9572917 -0.31394372 0 6.5875446e-06 0 0)
(-2.9600894 -0.3141414 0 -6.4546967e-06 0 0)
(-2.9581322 -0.31398877 0 6.6839988e-06 0 0)
(-2.960073 -0.3141402 0 -6.4792206e-06 0 0)
(-1.9589735 -0.91710744 0 -0.38101364 0 0)
(-4.877842 -0.4219294 0 -0.0080978685 0 0)
(-2.987754 -0.32153019 0 -0.0025851968 0 0)
(-2.8819121 -0.30959131 0 -2.230409e-05 0 0)
(-2.7211927 -0.30107115 0 -6.9492431e-06 0 0)
(-2.8096389 -0.30646261 0 -7.4289112e-05 0 0)
(-2.7111247 -0.30038583 0 1.8799091e-05 0 0)
(-2.7792229 -0.30465737 0 -4.8810308e-05 0 0)
(-2.7116854 -0.30038451 0 3.9147604e-05 0 0)
(-2.7714289 -0.30419435 0 -4.0820244e-05 0 0)
(-2.7151793 -0.30060326 0 3.7823288e-05 0 0)
(-2.7674204 -0.30394761 0 -3.6485402e-05 0 0)
(-2.7181969 -0.30079619 0 3.4101434e-05 0 0)
(-2.7642954 -0.30375089 0 -3.2445334e-05 0 0)
(-2.7208706 -0.30096783 0 3.0439897e-05 0 0)
(-2.7616192 -0.30358132 0 -2.8810959e-05 0 0)
(-2.7232855 -0.30112274 0 2.7108934e-05 0 0)
(-2.7592687 -0.30343212 0 -2.5612495e-05 0 0)
(-2.7254544 -0.30126171 0 2.4138595e-05 0 0)
(-2.757186 -0.30329982 0 -2.2799013e-05 0 0)
(-2.7273941 -0.30138586 0 2.1510299e-05 0 0)
(-2.7553339 -0.30318216 0 -2.0324181e-05 0 0)
(-2.7291261 -0.30149662 0 1.9194559e-05 0 0)
(-2.7536837 -0.30307735 0 -1.8150359e-05 0 0)
(-2.7306732 -0.30159542 0 1.7160969e-05 0 0)
(-2.7522109 -0.30298386 0 -1.6245481e-05 0 0)
(-2.7320566 -0.30168365 0 1.5380976e-05 0 0)
(-2.7508936 -0.30290033 0 -1.4581471e-05 0 0)
(-2.7332965 -0.30176258 0 1.3828713e-05 0 0)
(-2.7497122 -0.30282554 0 -1.3133607e-05 0 0)
(-2.7344109 -0.30183336 0 1.2481192e-05 0 0)
(-2.7486492 -0.30275837 0 -1.1880224e-05 0 0)
(-2.7354162 -0.30189703 0 1.1318271e-05 0 0)
(-2.7476885 -0.30269783 0 -1.0802507e-05 0 0)
(-2.7363275 -0.30195455 0 1.032253e-05 0 0)
(-2.7468157 -0.30264301 0 -9.8843192e-06 0 0)
(-2.7371583 -0.30200677 0 9.4791317e-06 0 0)
(-2.7460179 -0.3025931 0 -9.1120458e-06 0 0)
(-2.7379208 -0.30205446 0 8.775704e-06 0 0)
(-2.7452831 -0.30254737 0 -8.4745028e-06 0 0)
(-2.7386264 -0.30209834 0 8.2023301e-06 0 0)
(-2.7446004 -0.30250513 0 -7.9630308e-06 0 0)
(-2.7392856 -0.30213906 0 7.7514803e-06 0 0)
(-2.7439596 -0.30246576 0 -7.5729788e-06 0 0)
(-2.7399072 -0.30217715 0 7.4174252e-06 0 0)
(-2.7433486 -0.30242855 0 -7.3022152e-06 0 0)
(-2.7404976 -0.30221287 0 7.2346925e-06 0 0)
(-2.7427705 -0.30239304 0 -7.0221011e-06 0 0)
(-2.7411677 -0.30225008 0 7.7068396e-06 0 0)
(-2.7426372 -0.30238464 0 -6.9650604e-06 0 0)
(-1.86309 -0.87226826 0 -0.35483181 0 0)
(-4.2813909 -0.39465339 0 -0.0095883661 0 0)
(-2.9019293 -0.32086121 0 -0.0038807962 0 0)
(-2.751775 -0.30248099 0 -0.00012161917 0 0)
(-2.5823229 -0.29328158 0 -2.9058431e-05 0 0)
(-2.6612824 -0.29837085 0 -8.5387505e-05 0 0)
(-2.5743772 -0.29269312 0 2.7246546e-06 0 0)
(-2.6347653 -0.29669182 0 -4.9506329e-05 0 0)
(-2.5744029 -0.29263303 0 3.5601641e-05 0 0)
(-2.6276648 -0.29624602 0 -3.9256833e-05 0 0)
(-2.5774313 -0.29283429 0 3.6051759e-05 0 0)
(-2.6240817 -0.29601378 0 -3.5132938e-05 0 0)
(-2.5801206 -0.29301745 0 3.2688235e-05 0 0)
(-2.6212933 -0.29582727 0 -3.1239515e-05 0 0)
(-2.5825097 -0.29318082 0 2.9227136e-05 0 0)
(-2.6189015 -0.2956659 0 -2.771555e-05 0 0)
(-2.5846682 -0.29332833 0 2.6045735e-05 0 0)
(-2.616801 -0.2955239 0 -2.4626617e-05 0 0)
(-2.5866072 -0.29346067 0 2.3197051e-05 0 0)
(-2.6149406 -0.29539803 0 -2.1916513e-05 0 0)
(-2.5883412 -0.29357889 0 2.0672577e-05 0 0)
(-2.613287 -0.29528612 0 -1.9535423e-05 0 0)
(-2.5898895 -0.29368434 0 1.8447217e-05 0 0)
(-2.6118139 -0.29518646 0 -1.7445055e-05 0 0)
(-2.5912724 -0.2937784 0 1.6492762e-05 0 0)
(-2.6104993 -0.29509756 0 -1.5613786e-05 0 0)
(-2.592509 -0.29386239 0 1.4782038e-05 0 0)
(-2.6093236 -0.29501813 0 -1.4014303e-05 0 0)
(-2.5936174 -0.29393754 0 1.3290233e-05 0 0)
(-2.6082692 -0.294947 0 -1.2622711e-05 0 0)
(-2.5946137 -0.29400493 0 1.1995257e-05 0 0)
(-2.6073203 -0.2948831 0 -1.1418141e-05 0 0)
(-2.5955126 -0.29406558 0 1.0877769e-05 0 0)
(-2.6064625 -0.29482549 0 -1.0382526e-05 0 0)
(-2.5963276 -0.29412038 0 9.9210837e-06 0 0)
(-2.6056831 -0.29477331 0 -9.5004233e-06 0 0)
(-2.5970707 -0.29417015 0 9.1110478e-06 0 0)
(-2.6049704 -0.29472577 0 -8.7588911e-06 0 0)
(-2.597753 -0.29421564 0 8.4359669e-06 0 0)
(-2.6043137 -0.29468218 0 -8.1474358e-06 0 0)
(-2.5983845 -0.29425751 0 7.8866835e-06 0 0)
(-2.6037033 -0.29464188 0 -7.6582232e-06 0 0)
(-2.5989747 -0.29429639 0 7.4566192e-06 0 0)
(-2.60313 -0.29460431 0 -7.2883073e-06 0 0)
(-2.5995316 -0.2943328 0 7.1405877e-06 0 0)
(-2.6025829 -0.29456878 0 -7.0400693e-06 0 0)
(-2.6000604 -0.2943669 0 6.9828499e-06 0 0)
(-2.6020598 -0.29453436 0 -6.7531217e-06 0 0)
(-2.6006469 -0.29440047 0 7.6899445e-06 0 0)
(-2.6018825 -0.29452443 0 -7.1315822e-06 0 0)
(-1.7713746 -0.81911593 0 -0.32243006 0 0)
(-3.8669356 -0.37750899 0 -0.011285788 0 0)
(-2.7997618 -0.31998656 0 -0.0053563331 0 0)
(-2.6286259 -0.29562063 0 -0.00022761267 0 0)
(-2.4497848 -0.28564463 0 -6.5262387e-05 0 0)
(-2.518021 -0.29029446 0 -9.501364e-05 0 0)
(-2.4406107 -0.28499409 0 -1.7901952e-05 0 0)
(-2.4947406 -0.28873097 0 -4.6479559e-05 0 0)
(-2.4402571 -0.28488192 0 2.8375078e-05 0 0)
(-2.4882327 -0.28830117 0 -3.4251962e-05 0 0)
(-2.4428937 -0.28506554 0 3.1086794e-05 0 0)
(-2.4849892 -0.28808268 0 -3.0749527e-05 0 0)
(-2.4453089 -0.28523895 0 2.8425746e-05 0 0)
(-2.4824723 -0.28790602 0 -2.7344775e-05 0 0)
(-2.447463 -0.28539405 0 2.5478686e-05 0 0)
(-2.4803096 -0.2877526 0 -2.422777e-05 0 0)
(-2.4494094 -0.28553413 0 2.2727207e-05 0 0)
(-2.4784104 -0.28761757 0 -2.1511217e-05 0 0)
(-2.4511578 -0.28565981 0 2.0248067e-05 0 0)
(-2.4767291 -0.28749794 0 -1.9137324e-05 0 0)
(-2.4527212 -0.28577208 0 1.8046117e-05 0 0)
(-2.4752353 -0.28739161 0 -1.7055513e-05 0 0)
(-2.4541171 -0.2858722 0 1.6103705e-05 0 0)
(-2.473905 -0.28729693 0 -1.5229431e-05 0 0)
(-2.4553636 -0.28596151 0 1.4397494e-05 0 0)
(-2.4727182 -0.28721248 0 -1.3630331e-05 0 0)
(-2.4564784 -0.28604126 0 1.2904065e-05 0 0)
(-2.4716568 -0.28713702 0 -1.2233898e-05 0 0)
(-2.4574774 -0.28611262 0 1.1601783e-05 0 0)
(-2.4707051 -0.28706942 0 -1.1019066e-05 0 0)
(-2.4583755 -0.28617664 0 1.0471342e-05 0 0)
(-2.4698487 -0.28700869 0 -9.9675399e-06 0 0)
(-2.4591858 -0.28623427 0 9.4958548e-06 0 0)
(-2.4690747 -0.28695391 0 -9.0635417e-06 0 0)
(-2.4599205 -0.28628637 0 8.6607903e-06 0 0)
(-2.4683714 -0.28690426 0 -8.293641e-06 0 0)
(-2.4605903 -0.28633372 0 7.9538743e-06 0 0)
(-2.4677284 -0.28685901 0 -7.6466468e-06 0 0)
(-2.4612053 -0.28637701 0 7.3650444e-06 0 0)
(-2.467136 -0.28681749 0 -7.1135862e-06 0 0)
(-2.4617745 -0.2864169 0 6.886584e-06 0 0)
(-2.4665855 -0.28677908 0 -6.6879622e-06 0 0)
(-2.4623064 -0.28645396 0 6.5131611e-06 0 0)
(-2.4660685 -0.28674323 0 -6.3685466e-06 0 0)
(-2.4628084 -0.28648873 0 6.2396184e-06 0 0)
(-2.4655753 -0.28670932 0 -6.1610403e-06 0 0)
(-2.4632844 -0.28652126 0 6.1180315e-06 0 0)
(-2.465099 -0.28667592 0 -5.8593829e-06 0 0)
(-2.4637983 -0.28655144 0 7.0670988e-06 0 0)
(-2.4648813 -0.28666408 0 -6.5691865e-06 0 0)
(-1.7277976 -0.79039809 0 -0.30460595 0 0)
(-3.449639 -0.35900891 0 -0.012637793 0 0)
(-2.6582908 -0.3163037 0 -0.0066348591 0 0)
(-2.505227 -0.28874413 0 -0.00033471854 0 0)
(-2.3235315 -0.27812976 0 -0.00010839926 0 0)
(-2.3796591 -0.28224241 0 -0.00010601481 0 0)
(-2.3101021 -0.2772701 0 -3.6312008e-05 0 0)
(-2.3588749 -0.28077811 0 -4.3406524e-05 0 0)
(-2.3094085 -0.27712099 0 2.1607923e-05 0 0)
(-2.3528659 -0.28036355 0 -2.9372186e-05 0 0)
(-2.3117112 -0.27728938 0 2.6347227e-05 0 0)
(-2.349906 -0.28015744 0 -2.6486403e-05 0 0)
(-2.3138906 -0.27745404 0 2.4311123e-05 0 0)
(-2.3476216 -0.2799899 0 -2.3563333e-05 0 0)
(-2.3158449 -0.27760167 0 2.1848479e-05 0 0)
(-2.3456568 -0.27984388 0 -2.0844592e-05 0 0)
(-2.3176106 -0.27773496 0 1.9511416e-05 0 0)
(-2.3439312 -0.27971535 0 -1.8490597e-05 0 0)
(-2.3191962 -0.27785452 0 1.7390222e-05 0 0)
(-2.3424043 -0.27960151 0 -1.6443356e-05 0 0)
(-2.3206138 -0.2779613 0 1.5500934e-05 0 0)
(-2.3410481 -0.27950036 0 -1.4652002e-05 0 0)
(-2.3218793 -0.27805653 0 1.3832799e-05 0 0)
(-2.3398408 -0.27941031 0 -1.308223e-05 0 0)
(-2.3230094 -0.27814146 0 1.2367148e-05 0 0)
(-2.338764 -0.27932999 0 -1.170816e-05 0 0)
(-2.3240199 -0.27821731 0 1.1084207e-05 0 0)
(-2.3378013 -0.27925822 0 -1.050843e-05 0 0)
(-2.3249254 -0.27828518 0 9.9654347e-06 0 0)
(-2.3369381 -0.27919392 0 -9.464749e-06 0 0)
(-2.3257394 -0.27834609 0 8.9942363e-06 0 0)
(-2.3361614 -0.27913613 0 -8.5613276e-06 0 0)
(-2.3264738 -0.27840093 0 8.1561033e-06 0 0)
(-2.3354596 -0.27908399 0 -7.7846028e-06 0 0)
(-2.3271395 -0.27845053 0 7.438575e-06 0 0)
(-2.3348221 -0.27903672 0 -7.1230691e-06 0 0)
(-2.3277464 -0.27849562 0 6.8311584e-06 0 0)
(-2.3342394 -0.27899362 0 -6.5671795e-06 0 0)
(-2.3283035 -0.27853688 0 6.3252973e-06 0 0)
(-2.3337027 -0.27895404 0 -6.1093328e-06 0 0)
(-2.3288189 -0.2785749 0 5.9145267e-06 0 0)
(-2.3332041 -0.27891742 0 -5.7441224e-06 0 0)
(-2.3293004 -0.27861026 0 5.5944538e-06 0 0)
(-2.3327362 -0.27888321 0 -5.4714554e-06 0 0)
(-2.3297548 -0.27864346 0 5.3593473e-06 0 0)
(-2.3322901 -0.27885084 0 -5.299424e-06 0 0)
(-2.330185 -0.27867454 0 5.2637189e-06 0 0)
(-2.3318564 -0.27881856 0 -4.9818879e-06 0 0)
(-2.3306385 -0.27870198 0 6.383825e-06 0 0)
(-2.3316135 -0.27880524 0 -5.9498806e-06 0 0)
(-1.6458317 -0.73645132 0 -0.27243165 0 0)
(-3.0556584 -0.33987427 0 -0.013272123 0 0)
(-2.5012215 -0.31117048 0 -0.0077464034 0 0)
(-2.3781571 -0.28159302 0 -0.00043013569 0 0)
(-2.2013153 -0.27063784 0 -0.00015617714 0 0)
(-2.2457368 -0.27419964 0 -0.00011765683 0 0)
(-2.1829155 -0.26951969 0 -5.1419397e-05 0 0)
(-2.2269778 -0.27282626 0 -4.0680203e-05 0 0)
(-2.1819804 -0.26935219 0 1.6066913e-05 0 0)
(-2.2214319 -0.27243005 0 -2.5244473e-05 0 0)
(-2.1840054 -0.26950847 0 2.246795e-05 0 0)
(-2.218728 -0.27223609 0 -2.2932801e-05 0 0)
(-2.1859774 -0.26966528 0 2.0907284e-05 0 0)
(-2.2166518 -0.27207729 0 -2.0424601e-05 0 0)
(-2.1877547 -0.26980595 0 1.8836883e-05 0 0)
(-2.2148641 -0.27193834 0 -1.8037972e-05 0 0)
(-2.1893599 -0.26993282 0 1.6843446e-05 0 0)
(-2.2132936 -0.27181597 0 -1.5984832e-05 0 0)
(-2.1908006 -0.27004659 0 1.5019799e-05 0 0)
(-2.2119042 -0.27170763 0 -1.4208713e-05 0 0)
(-2.1920884 -0.27014818 0 1.3390243e-05 0 0)
(-2.2106707 -0.27161139 0 -1.265849e-05 0 0)
(-2.1932379 -0.27023876 0 1.1949795e-05 0 0)
(-2.209573 -0.27152572 0 -1.1301466e-05 0 0)
(-2.1942643 -0.27031955 0 1.0683734e-05 0 0)
(-2.208594 -0.27144931 0 -1.0114119e-05 0 0)
(-2.195182 -0.2703917 0 9.575356e-06 0 0)
(-2.207719 -0.27138103 0 -9.0775498e-06 0 0)
(-2.1960044 -0.27045627 0 8.6087194e-06 0 0)
(-2.2069345 -0.27131985 0 -8.1757839e-06 0 0)
(-2.1967436 -0.27051422 0 7.7694938e-06 0 0)
(-2.2062288 -0.27126485 0 -7.3951242e-06 0 0)
(-2.1974105 -0.27056642 0 7.0451522e-06 0 0)
(-2.2055912 -0.27121522 0 -6.7238496e-06 0 0)
(-2.198015 -0.27061364 0 6.4249493e-06 0 0)
(-2.2050121 -0.27117021 0 -6.1520439e-06 0 0)
(-2.198566 -0.27065658 0 5.8998542e-06 0 0)
(-2.2044829 -0.27112915 0 -5.6715017e-06 0 0)
(-2.1990716 -0.27069589 0 5.4625263e-06 0 0)
(-2.2039957 -0.27109143 0 -5.2757138e-06 0 0)
(-2.1995393 -0.27073213 0 5.1074725e-06 0 0)
(-2.2035432 -0.27105651 0 -4.9600798e-06 0 0)
(-2.199976 -0.27076585 0 4.830957e-06 0 0)
(-2.2031188 -0.27102388 0 -4.7252131e-06 0 0)
(-2.200388 -0.27079755 0 4.6264233e-06 0 0)
(-2.2027146 -0.270993 0 -4.5810107e-06 0 0)
(-2.2007777 -0.27082722 0 4.548072e-06 0 0)
(-2.2023195 -0.27096189 0 -4.2465504e-06 0 0)
(-2.2011788 -0.27085234 0 5.7838253e-06 0 0)
(-2.2020614 -0.27094727 0 -5.3907459e-06 0 0)
(-1.613601 -0.71096514 0 -0.25715777 0 0)
(-2.69279 -0.32426973 0 -0.01476185 0 0)
(-2.3339778 -0.30442794 0 -0.0086061695 0 0)
(-2.2450067 -0.27425443 0 -0.00059816028 0 0)
(-2.0836058 -0.26338802 0 -0.00024468927 0 0)
(-2.1171133 -0.26626237 0 -0.00013865222 0 0)
(-2.0596774 -0.26179185 0 -6.7225838e-05 0 0)
(-2.0992795 -0.26489157 0 -3.8860294e-05 0 0)
(-2.0581738 -0.26158536 0 1.1198571e-05 0 0)
(-2.0939456 -0.26450233 0 -2.1732094e-05 0 0)
(-2.0598538 -0.26172583 0 1.9193275e-05 0 0)
(-2.0914238 -0.26431776 0 -1.99013e-05 0 0)
(-2.0616166 -0.26187427 0 1.8018513e-05 0 0)
(-2.0895256 -0.26416698 0 -1.7753002e-05 0 0)
(-2.0632301 -0.2620081 0 1.6274736e-05 0 0)
(-2.0878966 -0.26403481 0 -1.5650489e-05 0 0)
(-2.0646897 -0.26212878 0 1.4573405e-05 0 0)
(-2.0864662 -0.2639184 0 -1.3853508e-05 0 0)
(-2.0659995 -0.26223696 0 1.3003387e-05 0 0)
(-2.0852014 -0.26381537 0 -1.2308146e-05 0 0)
(-2.0671702 -0.26233353 0 1.1595105e-05 0 0)
(-2.0840787 -0.26372386 0 -1.0963157e-05 0 0)
(-2.068215 -0.26241963 0 1.0348503e-05 0 0)
(-2.0830799 -0.26364241 0 -9.7871756e-06 0 0)
(-2.0691479 -0.26249643 0 9.2522816e-06 0 0)
(-2.0821894 -0.26356977 0 -8.7586811e-06 0 0)
(-2.0699819 -0.26256501 0 8.292394e-06 0 0)
(-2.0813934 -0.26350485 0 -7.8608818e-06 0 0)
(-2.0707294 -0.26262641 0 7.4551352e-06 0 0)
(-2.0806799 -0.26344667 0 -7.0797915e-06 0 0)
(-2.0714012 -0.26268152 0 6.7281189e-06 0 0)
(-2.0800381 -0.26339436 0 -6.4035028e-06 0 0)
(-2.0720073 -0.26273117 0 6.1005114e-06 0 0)
(-2.0794583 -0.26334714 0 -5.8218653e-06 0 0)
(-2.0725566 -0.26277609 0 5.5630277e-06 0 0)
(-2.0789319 -0.2633043 0 -5.3263116e-06 0 0)
(-2.0730573 -0.26281697 0 5.1078736e-06 0 0)
(-2.0784509 -0.26326521 0 -4.9097662e-06 0 0)
(-2.0735166 -0.26285439 0 4.7287255e-06 0 0)
(-2.0780081 -0.2632293 0 -4.5666259e-06 0 0)
(-2.0739414 -0.26288891 0 4.4208849e-06 0 0)
(-2.0775971 -0.26319603 0 -4.2929291e-06 0 0)
(-2.074338 -0.26292104 0 4.1811267e-06 0 0)
(-2.0772118 -0.26316492 0 -4.0897558e-06 0 0)
(-2.074712 -0.26295127 0 4.0020863e-06 0 0)
(-2.0768451 -0.26313549 0 -3.9685637e-06 0 0)
(-2.0750654 -0.2629796 0 3.936061e-06 0 0)
(-2.0764852 -0.26310558 0 -3.6203418e-06 0 0)
(-2.0754208 -0.26300272 0 5.2428528e-06 0 0)
(-2.0762195 -0.26308989 0 -4.8826367e-06 0 0)
(-1.5732568 -0.67475102 0 -0.23449418 0 0)
(-2.3470617 -0.30741769 0 -0.015523525 0 0)
(-2.1760859 -0.29723457 0 -0.0090701537 0 0)
(-2.0968175 -0.26554295 0 -0.00075506115 0 0)
(-1.956198 -0.25540428 0 -0.00031365221 0 0)
(-1.9893083 -0.25817964 0 -0.00015649991 0 0)
(-1.9383066 -0.25398439 0 -7.9734629e-05 0 0)
(-1.9748577 -0.25693536 0 -3.6850692e-05 0 0)
(-1.9376175 -0.25380469 0 7.091512e-06 0 0)
(-1.9702113 -0.25657334 0 -1.8514041e-05 0 0)
(-1.9392077 -0.25393903 0 1.6357759e-05 0 0)
(-1.9679412 -0.25640098 0 -1.718543e-05 0 0)
(-1.9408165 -0.25408082 0 1.547251e-05 0 0)
(-1.9662187 -0.25625851 0 -1.537721e-05 0 0)
(-1.9422871 -0.25420831 0 1.4004739e-05 0 0)
(-1.9647366 -0.25613302 0 -1.3532085e-05 0 0)
(-1.9436156 -0.25432305 0 1.2560428e-05 0 0)
(-1.9634343 -0.25602241 0 -1.1963483e-05 0 0)
(-1.9448069 -0.25442582 0 1.1215348e-05 0 0)
(-1.9622826 -0.25592452 0 -1.0623079e-05 0 0)
(-1.9458714 -0.25451755 0 1.0003476e-05 0 0)
(-1.9612607 -0.25583759 0 -9.4602078e-06 0 0)
(-1.9468213 -0.25459932 0 8.9288749e-06 0 0)
(-1.9603517 -0.25576022 0 -8.4448054e-06 0 0)
(-1.9476694 -0.25467225 0 7.9832938e-06 0 0)
(-1.9595413 -0.25569122 0 -7.5571623e-06 0 0)
(-1.9484277 -0.2547374 0 7.1550688e-06 0 0)
(-1.958817 -0.25562954 0 -6.7823787e-06 0 0)
(-1.9491073 -0.25479573 0 6.4325019e-06 0 0)
(-1.9581679 -0.25557426 0 -6.1082477e-06 0 0)
(-1.9497181 -0.25484809 0 5.8049451e-06 0 0)
(-1.957584 -0.25552455 0 -5.5244589e-06 0 0)
(-1.9502692 -0.25489528 0 5.2630733e-06 0 0)
(-1.9570566 -0.25547966 0 -5.0222575e-06 0 0)
(-1.9507686 -0.25493799 0 4.7988969e-06 0 0)
(-1.9565777 -0.25543892 0 -4.5942699e-06 0 0)
(-1.9512238 -0.25497686 0 4.4057134e-06 0 0)
(-1.9561403 -0.25540174 0 -4.2344142e-06 0 0)
(-1.9516413 -0.25501246 0 4.0780901e-06 0 0)
(-1.9557378 -0.25536756 0 -3.9378768e-06 0 0)
(-1.9520273 -0.25504532 0 3.8120134e-06 0 0)
(-1.9553643 -0.25533589 0 -3.7012357e-06 0 0)
(-1.9523876 -0.25507591 0 3.6046905e-06 0 0)
(-1.9550142 -0.25530627 0 -3.5258884e-06 0 0)
(-1.9527273 -0.25510472 0 3.4480676e-06 0 0)
(-1.9546814 -0.25527824 0 -3.4246618e-06 0 0)
(-1.953048 -0.25513174 0 3.3916404e-06 0 0)
(-1.9543535 -0.25524956 0 -3.0669222e-06 0 0)
(-1.9533633 -0.25515314 0 4.7337406e-06 0 0)
(-1.9540858 -0.25523299 0 -4.4066948e-06 0 0)
(-1.5733184 -0.63174188 0 -0.20282755 0 0)
(-2.0532079 -0.29289348 0 -0.016157167 0 0)
(-2.0258681 -0.28715697 0 -0.0086251751 0 0)
(-1.9646448 -0.25990825 0 -0.0015643507 0 0)
(-1.839935 -0.24826998 0 -0.00050531708 0 0)
(-1.8678183 -0.25027733 0 -0.00019197383 0 0)
(-1.8216064 -0.24623918 0 -9.5995791e-05 0 0)
(-1.854777 -0.24900486 0 -3.582069e-05 0 0)
(-1.8208252 -0.24603073 0 3.1866479e-06 0 0)
(-1.8504142 -0.24865121 0 -1.5646433e-05 0 0)
(-1.8221729 -0.24615161 0 1.3821296e-05 0 0)
(-1.848301 -0.24848725 0 -1.4732451e-05 0 0)
(-1.8236085 -0.24628558 0 1.3188458e-05 0 0)
(-1.8467234 -0.24835215 0 -1.323412e-05 0 0)
(-1.8249423 -0.24640668 0 1.1962532e-05 0 0)
(-1.8453725 -0.24823303 0 -1.1623922e-05 0 0)
(-1.8261504 -0.24651563 0 1.0748349e-05 0 0)
(-1.8441864 -0.24812801 0 -1.0261954e-05 0 0)
(-1.8272337 -0.24661317 0 9.6057777e-06 0 0)
(-1.843138 -0.24803508 0 -9.106371e-06 0 0)
(-1.8282015 -0.24670022 0 8.5708476e-06 0 0)
(-1.8422078 -0.24795257 0 -8.1075486e-06 0 0)
(-1.8290651 -0.24677782 0 7.6511505e-06 0 0)
(-1.8413805 -0.24787914 0 -7.2367167e-06 0 0)
(-1.8298362 -0.24684703 0 6.8411823e-06 0 0)
(-1.840643 -0.24781365 0 -6.4758391e-06 0 0)
(-1.8305257 -0.24690886 0 6.1314521e-06 0 0)
(-1.839984 -0.2477551 0 -5.8117448e-06 0 0)
(-1.8311436 -0.24696423 0 5.5120888e-06 0 0)
(-1.8393934 -0.24770261 0 -5.2338444e-06 0 0)
(-1.831699 -0.24701395 0 4.9740213e-06 0 0)
(-1.8388621 -0.2476554 0 -4.7332728e-06 0 0)
(-1.8322001 -0.24705876 0 4.5092873e-06 0 0)
(-1.8383823 -0.24761276 0 -4.3025336e-06 0 0)
(-1.8326542 -0.24709934 0 4.1110626e-06 0 0)
(-1.8379468 -0.24757406 0 -3.9353239e-06 0 0)
(-1.833068 -0.24713627 0 3.7736226e-06 0 0)
(-1.8375489 -0.24753872 0 -3.6264498e-06 0 0)
(-1.8334476 -0.24717011 0 3.4923275e-06 0 0)
(-1.8371829 -0.24750622 0 -3.3717962e-06 0 0)
(-1.8337984 -0.24720136 0 3.2637635e-06 0 0)
(-1.8368434 -0.2474761 0 -3.1684079e-06 0 0)
(-1.8341258 -0.24723046 0 3.0855132e-06 0 0)
(-1.8365253 -0.24744791 0 -3.0178828e-06 0 0)
(-1.8344344 -0.24725789 0 2.948977e-06 0 0)
(-1.8362232 -0.24742125 0 -2.9341955e-06 0 0)
(-1.8347257 -0.24728364 0 2.9002894e-06 0 0)
(-1.8359246 -0.2473938 0 -2.5711794e-06 0 0)
(-1.8350055 -0.24730354 0 4.2475733e-06 0 0)
(-1.8356592 -0.24737654 0 -3.9587569e-06 0 0)
(-1.5845752 -0.60880085 0 -0.18633951 0 0)
(-1.8139561 -0.27942716 0 -0.016757175 0 0)
(-1.8735179 -0.27388392 0 -0.0076149083 0 0)
(-1.8272987 -0.2522758 0 -0.0019915083 0 0)
(-1.721497 -0.24045247 0 -0.00060319048 0 0)
(-1.7486525 -0.24222843 0 -0.00020892786 0 0)
(-1.7075244 -0.23841974 0 -0.0001041207 0 0)
(-1.738126 -0.24105258 0 -3.2977838e-05 0 0)
(-1.7073862 -0.23824287 0 3.4346167e-07 0 0)
(-1.734346 -0.24072742 0 -1.2824128e-05 0 0)
(-1.7086782 -0.23835989 0 1.1633597e-05 0 0)
(-1.7324502 -0.24057496 0 -1.24778e-05 0 0)
(-1.7099898 -0.23848787 0 1.1145055e-05 0 0)
(-1.7310197 -0.2404476 0 -1.1289324e-05 0 0)
(-1.7112051 -0.2386031 0 1.0121543e-05 0 0)
(-1.7297916 -0.24033476 0 -9.8984723e-06 0 0)
(-1.7123044 -0.23870651 0 9.1122733e-06 0 0)
(-1.7287126 -0.24023519 0 -8.7248961e-06 0 0)
(-1.7132893 -0.23879903 0 8.152222e-06 0 0)
(-1.7277586 -0.24014706 0 -7.736671e-06 0 0)
(-1.7141689 -0.23888156 0 7.2771161e-06 0 0)
(-1.7269123 -0.24006881 0 -6.8861158e-06 0 0)
(-1.7149539 -0.23895514 0 6.4973411e-06 0 0)
(-1.7261596 -0.23999917 0 -6.1458553e-06 0 0)
(-1.7156547 -0.23902077 0 5.8098355e-06 0 0)
(-1.7254887 -0.23993706 0 -5.4994277e-06 0 0)
(-1.7162814 -0.23907941 0 5.2070864e-06 0 0)
(-1.7248892 -0.23988152 0 -4.9352511e-06 0 0)
(-1.7168431 -0.23913192 0 4.6808881e-06 0 0)
(-1.7243519 -0.23983172 0 -4.4442105e-06 0 0)
(-1.717348 -0.2391791 0 4.2236026e-06 0 0)
(-1.7238687 -0.23978692 0 -4.0187523e-06 0 0)
(-1.7178035 -0.23922162 0 3.828501e-06 0 0)
(-1.7234323 -0.23974645 0 -3.6525166e-06 0 0)
(-1.7182163 -0.23926014 0 3.4898101e-06 0 0)
(-1.7230362 -0.2397097 0 -3.3401644e-06 0 0)
(-1.7185925 -0.23929521 0 3.2026834e-06 0 0)
(-1.7226745 -0.23967614 0 -3.0772964e-06 0 0)
(-1.7189374 -0.23932735 0 2.9631892e-06 0 0)
(-1.7223418 -0.23964527 0 -2.8604193e-06 0 0)
(-1.7192563 -0.23935703 0 2.768442e-06 0 0)
(-1.7220332 -0.23961664 0 -2.6869847e-06 0 0)
(-1.7195536 -0.23938469 0 2.616353e-06 0 0)
(-1.7217442 -0.23958985 0 -2.5586973e-06 0 0)
(-1.719834 -0.23941078 0 2.4979311e-06 0 0)
(-1.72147 -0.2395645 0 -2.4904256e-06 0 0)
(-1.7200985 -0.23943531 0 2.4556409e-06 0 0)
(-1.7211984 -0.23953829 0 -2.126169e-06 0 0)
(-1.7203468 -0.23945389 0 3.7824702e-06 0 0)
(-1.7209383 -0.23952049 0 -3.5389928e-06 0 0)
(-1.5879811 -0.57531243 0 -0.16375578 0 0)
(-1.6396116 -0.26481593 0 -0.015576048 0 0)
(-1.7272582 -0.2666859 0 -0.0090311621 0 0)
(-1.6994144 -0.24366984 0 -0.0020337631 0 0)
(-1.6102026 -0.23262864 0 -0.0006422822 0 0)
(-1.6348695 -0.23421199 0 -0.00021077506 0 0)
(-1.5977404 -0.23061476 0 -0.00010666083 0 0)
(-1.6256254 -0.2331116 0 -2.851083e-05 0 0)
(-1.5976713 -0.23045624 0 -1.6215421e-06 0 0)
(-1.6221496 -0.23280813 0 -1.0050234e-05 0 0)
(-1.5988065 -0.23056668 0 9.7454535e-06 0 0)
(-1.6204065 -0.23266524 0 -1.0401225e-05 0 0)
(-1.5999846 -0.23068825 0 9.3117674e-06 0 0)
(-1.6191024 -0.23254503 0 -9.5196442e-06 0 0)
(-1.6010877 -0.2307977 0 8.4576642e-06 0 0)
(-1.6179855 -0.23243823 0 -8.3338775e-06 0 0)
(-1.6020868 -0.23089576 0 7.6312376e-06 0 0)
(-1.6170045 -0.2323439 0 -7.3325974e-06 0 0)
(-1.6029817 -0.23098343 0 6.8360226e-06 0 0)
(-1.6161371 -0.2322604 0 -6.4963476e-06 0 0)
(-1.6037807 -0.23106162 0 6.105613e-06 0 0)
(-1.6153676 -0.23218626 0 -5.7801455e-06 0 0)
(-1.6044937 -0.23113132 0 5.4525423e-06 0 0)
(-1.6146833 -0.23212027 0 -5.158116e-06 0 0)
(-1.6051303 -0.2311935 0 4.8759107e-06 0 0)
(-1.6140733 -0.23206141 0 -4.6152896e-06 0 0)
(-1.6056996 -0.23124907 0 4.370005e-06 0 0)
(-1.6135283 -0.23200877 0 -4.1415488e-06 0 0)
(-1.6062099 -0.23129884 0 3.9281395e-06 0 0)
(-1.6130398 -0.23196156 0 -3.729125e-06 0 0)
(-1.6066686 -0.23134356 0 3.5439796e-06 0 0)
(-1.6126006 -0.23191908 0 -3.3716558e-06 0 0)
(-1.6070825 -0.23138388 0 3.2119144e-06 0 0)
(-1.6122039 -0.2318807 0 -3.0638092e-06 0 0)
(-1.6074575 -0.23142041 0 2.92712e-06 0 0)
(-1.6118439 -0.23184584 0 -2.801115e-06 0 0)
(-1.6077992 -0.23145368 0 2.6855405e-06 0 0)
(-1.6115152 -0.231814 0 -2.579888e-06 0 0)
(-1.6081126 -0.23148418 0 2.4838786e-06 0 0)
(-1.6112129 -0.2317847 0 -2.3971905e-06 0 0)
(-1.6084022 -0.23151236 0 2.3197171e-06 0 0)
(-1.6109326 -0.23175751 0 -2.2508336e-06 0 0)
(-1.6086722 -0.23153863 0 2.1912593e-06 0 0)
(-1.6106702 -0.23173206 0 -2.142555e-06 0 0)
(-1.6089266 -0.23156341 0 2.0892818e-06 0 0)
(-1.6104215 -0.23170799 0 -2.0878482e-06 0 0)
(-1.6091669 -0.23158676 0 2.0524745e-06 0 0)
(-1.6101745 -0.23168301 0 -1.7262218e-06 0 0)
(-1.6093871 -0.23160418 0 3.3371687e-06 0 0)
(-1.6099222 -0.23166483 0 -3.1471934e-06 0 0)
(-1.5850683 -0.55581157 0 -0.1521822 0 0)
(-1.4868109 -0.25390008 0 -0.015723294 0 0)
(-1.582342 -0.25603726 0 -0.0090634651 0 0)
(-1.5812246 -0.2341047 0 -0.0015594009 0 0)
(-1.5062101 -0.22466983 0 -0.00057065398 0 0)
(-1.5260928 -0.22613894 0 -0.00018052419 0 0)
(-1.4920317 -0.22278073 0 -9.7475838e-05 0 0)
(-1.5171339 -0.22516375 0 -2.0409653e-05 0 0)
(-1.491629 -0.22266304 0 -2.0441166e-06 0 0)
(-1.5137839 -0.22488989 0 -7.0544986e-06 0 0)
(-1.4925558 -0.22277058 0 8.2157667e-06 0 0)
(-1.5121546 -0.22475735 0 -8.4437271e-06 0 0)
(-1.4936003 -0.2228865 0 7.6773629e-06 0 0)
(-1.5109616 -0.22464426 0 -7.8968675e-06 0 0)
(-1.4945984 -0.22299047 0 6.9518391e-06 0 0)
(-1.5099462 -0.22454334 0 -6.9087982e-06 0 0)
(-1.4955052 -0.22308341 0 6.2866171e-06 0 0)
(-1.5090551 -0.22445409 0 -6.0667331e-06 0 0)
(-1.4963175 -0.22316641 0 5.6402028e-06 0 0)
(-1.5082672 -0.22437506 0 -5.3691907e-06 0 0)
(-1.4970426 -0.22324042 0 5.0410935e-06 0 0)
(-1.5075683 -0.22430488 0 -4.7751881e-06 0 0)
(-1.4976896 -0.2233064 0 4.503109e-06 0 0)
(-1.5069467 -0.2242424 0 -4.2605836e-06 0 0)
(-1.4982674 -0.22336526 0 4.0271926e-06 0 0)
(-1.5063927 -0.22418667 0 -3.8118589e-06 0 0)
(-1.4987842 -0.22341788 0 3.6092553e-06 0 0)
(-1.5058976 -0.22413682 0 -3.420256e-06 0 0)
(-1.4992474 -0.22346501 0 3.2439968e-06 0 0)
(-1.505454 -0.2240921 0 -3.0792396e-06 0 0)
(-1.4996638 -0.22350736 0 2.926269e-06 0 0)
(-1.505055 -0.22405186 0 -2.7835308e-06 0 0)
(-1.5000395 -0.22354557 0 2.6514762e-06 0 0)
(-1.5046947 -0.22401549 0 -2.5287299e-06 0 0)
(-1.5003799 -0.22358018 0 2.415654e-06 0 0)
(-1.5043678 -0.22398245 0 -2.3111523e-06 0 0)
(-1.5006901 -0.22361172 0 2.2154606e-06 0 0)
(-1.5040694 -0.22395226 0 -2.1277563e-06 0 0)
(-1.5009745 -0.22364063 0 2.0481701e-06 0 0)
(-1.5037949 -0.22392448 0 -1.976104e-06 0 0)
(-1.5012372 -0.22366736 0 1.9117832e-06 0 0)
(-1.5035405 -0.22389869 0 -1.8543282e-06 0 0)
(-1.5014822 -0.22369228 0 1.8047659e-06 0 0)
(-1.5033025 -0.22387454 0 -1.7641442e-06 0 0)
(-1.501713 -0.22371581 0 1.7178225e-06 0 0)
(-1.5030771 -0.2238517 0 -1.7213907e-06 0 0)
(-1.501931 -0.22373801 0 1.6859147e-06 0 0)
(-1.5028528 -0.22382794 0 -1.3660693e-06 0 0)
(-1.5021262 -0.22375439 0 2.9103011e-06 0 0)
(-1.50261 -0.22380951 0 -2.7825126e-06 0 0)
(-1.5836529 -0.51949753 0 -0.13013195 0 0)
(-1.3666335 -0.24204401 0 -0.014764068 0 0)
(-1.4525349 -0.24572226 0 -0.0090430122 0 0)
(-1.4721394 -0.22507973 0 -0.0011928375 0 0)
(-1.4064009 -0.2168121 0 -0.00050618189 0 0)
(-1.421987 -0.21813439 0 -0.00014797917 0 0)
(-1.3902655 -0.21496409 0 -8.6594786e-05 0 0)
(-1.4126704 -0.21723105 0 -1.174422e-05 0 0)
(-1.3893093 -0.21487293 0 -1.9412332e-06 0 0)
(-1.4092728 -0.21697717 0 -4.122192e-06 0 0)
(-1.3899563 -0.21497379 0 6.9212256e-06 0 0)
(-1.4076987 -0.21685229 0 -6.6154837e-06 0 0)
(-1.3908519 -0.21508317 0 6.2110498e-06 0 0)
(-1.4065939 -0.21674548 0 -6.4051701e-06 0 0)
(-1.3917461 -0.2151816 0 5.5849643e-06 0 0)
(-1.4056682 -0.21665011 0 -5.606478e-06 0 0)
(-1.3925664 -0.21526954 0 5.0622036e-06 0 0)
(-1.404859 -0.21656573 0 -4.9120808e-06 0 0)
(-1.3933024 -0.21534804 0 4.5503494e-06 0 0)
(-1.4041441 -0.21649099 0 -4.3415879e-06 0 0)
(-1.3939596 -0.21541803 0 4.0706834e-06 0 0)
(-1.4035099 -0.21642462 0 -3.8590806e-06 0 0)
(-1.3945461 -0.21548042 0 3.6375366e-06 0 0)
(-1.402946 -0.21636553 0 -3.4423814e-06 0 0)
(-1.3950699 -0.21553609 0 3.25339e-06 0 0)
(-1.4024433 -0.2163128 0 -3.0793955e-06 0 0)
(-1.3955384 -0.21558586 0 2.915614e-06 0 0)
(-1.4019942 -0.21626563 0 -2.762631e-06 0 0)
(-1.3959583 -0.21563046 0 2.6201701e-06 0 0)
(-1.4015917 -0.21622332 0 -2.4866831e-06 0 0)
(-1.3963359 -0.21567054 0 2.3629923e-06 0 0)
(-1.4012297 -0.21618523 0 -2.2472607e-06 0 0)
(-1.3966766 -0.2157067 0 2.1404077e-06 0 0)
(-1.4009029 -0.21615079 0 -2.0408104e-06 0 0)
(-1.3969852 -0.21573947 0 1.9492321e-06 0 0)
(-1.4006064 -0.21611951 0 -1.8643597e-06 0 0)
(-1.3972665 -0.21576933 0 1.7867709e-06 0 0)
(-1.4003357 -0.21609092 0 -1.7154495e-06 0 0)
(-1.3975243 -0.21579672 0 1.650815e-06 0 0)
(-1.4000869 -0.2160646 0 -1.5920934e-06 0 0)
(-1.3977624 -0.21582204 0 1.5397402e-06 0 0)
(-1.3998563 -0.21604016 0 -1.4927155e-06 0 0)
(-1.3979844 -0.21584566 0 1.4522513e-06 0 0)
(-1.3996405 -0.21601726 0 -1.418967e-06 0 0)