/*--------------------------------*- C++ -*----------------------------------*\
| =========                 |                                                 |
| \\      /  F ield         | OpenFOAM: The Open Source CFD Toolbox           |
|  \\    /   O peration     | Version:  2312                                  |
|   \\  /    A nd           | Website:  www.openfoam.com                      |
|    \\/     M anipulation  |                                                 |
\*---------------------------------------------------------------------------*/
FoamFile
{
    version     2.0;
    format      ascii;
    arch        "LSB;label=32;scalar=64";
    class       volSymmTensorField;
    location    "9";
    object      sigma_0;
}
// * * * * * * * * * * * * * * * * * * * * * * * * * * * * * * * * * * * * * //

dimensions      [0 2 -2 0 0 0 0];

internalField   nonuniform List<symmTensor> 
4000
(
(-2.2449354 -1.0056645 0 -0.40652865 0 0)
(-5.6688022 -0.44163517 0 -0.0029337812 0 0)
(-2.9245154 -0.31336732 0 -0.00086431243 0 0)
(-3.1201056 -0.3224189 0 1.1158319e-05 0 0)
(-2.9360526 -0.31267926 0 2.0750816e-05 0 0)
(-3.0380597 -0.31849322 0 -5.4149906e-05 0 0)
(-2.9203169 -0.31180736 0 3.4728566e-05 0 0)
(-3.0026925 -0.31657356 0 -4.2875484e-05 0 0)
(-2.9230967 -0.31196134 0 3.8324156e-05 0 0)
(-2.9937357 -0.31607794 0 -3.755248e-05 0 0)
(-2.9274557 -0.31221293 0 3.5146577e-05 0 0)
(-2.9889821 -0.3158073 0 -3.3454584e-05 0 0)
(-2.931044 -0.31242242 0 3.1426361e-05 0 0)
(-2.9853038 -0.31559525 0 -2.9741891e-05 0 0)
(-2.9342045 -0.31260727 0 2.7982946e-05 0 0)
(-2.9821654 -0.31541354 0 -2.643085e-05 0 0)
(-2.937053 -0.31277373 0 2.489804e-05 0 0)
(-2.9794077 -0.31525365 0 -2.350541e-05 0 0)
(-2.9396095 -0.31292299 0 2.2161306e-05 0 0)
(-2.9769626 -0.31511178 0 -2.0925328e-05 0 0)
(-2.941895 -0.31305633 0 1.974429e-05 0 0)
(-2.9747878 -0.31498556 0 -1.8653401e-05 0 0)
(-2.9439354 -0.31317529 0 1.7616315e-05 0 0)
(-2.97285 -0.31487311 0 -1.6657115e-05 0 0)
(-2.9457572 -0.31328141 0 1.5748229e-05 0 0)
(-2.9711208 -0.31477281 0 -1.4907652e-05 0 0)
(-2.9473858 -0.31337616 0 1.4113335e-05 0 0)
(-2.9695747 -0.31468321 0 -1.3379361e-05 0 0)
(-2.9488446 -0.31346089 0 1.2687651e-05 0 0)
(-2.9681886 -0.31460299 0 -1.2049503e-05 0 0)
(-2.9501552 -0.31353686 0 1.1449917e-05 0 0)
(-2.9669418 -0.31453097 0 -1.0898098e-05 0 0)
(-2.9513368 -0.31360518 0 1.0381516e-05 0 0)
(-2.9658156 -0.31446608 0 -9.9077661e-06 0 0)
(-2.9524071 -0.31366687 0 9.4663356e-06 0 0)
(-2.9647931 -0.31440734 0 -9.0635659e-06 0 0)
(-2.9533821 -0.31372285 0 8.6906086e-06 0 0)
(-2.963859 -0.31435389 0 -8.3528292e-06 0 0)
(-2.9542762 -0.31377396 0 8.0427661e-06 0 0)
(-2.9629993 -0.31430493 0 -7.7650242e-06 0 0)
(-2.9551027 -0.31382096 0 7.5133336e-06 0 0)
(-2.9622014 -0.31425972 0 -7.291712e-06 0 0)
(-2.9558737 -0.31386453 0 7.0948201e-06 0 0)
(-2.9614531 -0.31421761 0 -6.9270118e-06 0 0)
(-2.9565995 -0.31390526 0 6.7817621e-06 0 0)
(-2.9607412 -0.31417784 0 -6.6659879e-06 0 0)
(-2.9572917 -0.31394372 0 6.587636e-06 0 0)
(-2.9600894 -0.3141414 0 -6.4547929e-06 0 0)
(-2.9581322 -0.31398877 0 6.6841031e-06 0 0)
(-2.960073 -0.3141402 0 -6.4793208e-06 0 0)
(-1.9780665 -0.92512975 0 -0.38432793 0 0)
(-4.8770233 -0.4219319 0 -0.0081410204 0 0)
(-2.9872801 -0.32150044 0 -0.0025838974 0 0)
(-2.8817701 -0.3095816 0 -2.1956024e-05 0 0)
(-2.7211706 -0.30106927 0 -6.8060214e-06 0 0)
(-2.8096321 -0.30646141 0 -7.4286268e-05 0 0)
(-2.7111059 -0.3003846 0 1.88584e-05 0 0)
(-2.7792404 -0.30465812 0 -4.8829706e-05 0 0)
(-2.7116696 -0.30038362 0 3.9175823e-05 0 0)
(-2.7714457 -0.30419529 0 -4.0846088e-05 0 0)
(-2.7151647 -0.30060238 0 3.7846309e-05 0 0)
(-2.7674339 -0.30394845 0 -3.6506271e-05 0 0)
(-2.7181854 -0.30079544 0 3.411897e-05 0 0)
(-2.7643052 -0.30375154 0 -3.2459932e-05 0 0)
(-2.7208627 -0.30096728 0 3.0451499e-05 0 0)
(-2.7616254 -0.30358177 0 -2.8819858e-05 0 0)
(-2.7232809 -0.30112239 0 2.7115406e-05 0 0)
(-2.759272 -0.30343238 0 -2.561687e-05 0 0)
(-2.7254524 -0.30126152 0 2.4141224e-05 0 0)
(-2.7571871 -0.30329995 0 -2.2800222e-05 0 0)
(-2.7273937 -0.3013858 0 2.1510409e-05 0 0)
(-2.7553337 -0.30318219 0 -2.0323465e-05 0 0)
(-2.7291268 -0.30149663 0 1.9193269e-05 0 0)
(-2.7536828 -0.30307732 0 -1.8148694e-05 0 0)
(-2.7306742 -0.30159547 0 1.7159104e-05 0 0)
(-2.7522097 -0.3029838 0 -1.6243544e-05 0 0)
(-2.7320578 -0.30168372 0 1.5379072e-05 0 0)
(-2.7508924 -0.30290027 0 -1.4579668e-05 0 0)
(-2.7332975 -0.30176264 0 1.3827063e-05 0 0)
(-2.7497113 -0.30282548 0 -1.3132136e-05 0 0)
(-2.7344117 -0.30183341 0 1.2479915e-05 0 0)
(-2.7486485 -0.30275832 0 -1.187914e-05 0 0)
(-2.7354168 -0.30189707 0 1.1317374e-05 0 0)
(-2.747688 -0.30269779 0 -1.0801783e-05 0 0)
(-2.7363279 -0.30195458 0 1.0321962e-05 0 0)
(-2.7468154 -0.30264299 0 -9.8838869e-06 0 0)
(-2.7371585 -0.30200679 0 9.478817e-06 0 0)
(-2.7460178 -0.30259309 0 -9.111829e-06 0 0)
(-2.7379209 -0.30205447 0 8.7755683e-06 0 0)
(-2.745283 -0.30254736 0 -8.4744317e-06 0 0)
(-2.7386265 -0.30209835 0 8.2023104e-06 0 0)
(-2.7446004 -0.30250512 0 -7.9630502e-06 0 0)
(-2.7392856 -0.30213906 0 7.7515295e-06 0 0)
(-2.7439596 -0.30246576 0 -7.5730495e-06 0 0)
(-2.7399072 -0.30217715 0 7.4175115e-06 0 0)
(-2.7433486 -0.30242855 0 -7.302312e-06 0 0)
(-2.7404976 -0.30221286 0 7.2347968e-06 0 0)
(-2.7427706 -0.30239305 0 -7.0222087e-06 0 0)
(-2.7411677 -0.30225008 0 7.7069613e-06 0 0)
(-2.7426372 -0.30238464 0 -6.9651648e-06 0 0)
(-1.8429327 -0.86234163 0 -0.34962889 0 0)
(-4.2808137 -0.39442386 0 -0.0094824536 0 0)
(-2.9021853 -0.32088996 0 -0.0038810013 0 0)
(-2.7516365 -0.30247411 0 -0.00012220449 0 0)
(-2.5822963 -0.29327909 0 -2.8894419e-05 0 0)
(-2.661281 -0.29837009 0 -8.5386469e-05 0 0)
(-2.5743587 -0.2926917 0 2.7993121e-06 0 0)
(-2.6347824 -0.29669267 0 -4.9520786e-05 0 0)
(-2.5743883 -0.29263209 0 3.5630811e-05 0 0)
(-2.62768 -0.29624697 0 -3.9282335e-05 0 0)
(-2.5774183 -0.29283342 0 3.6073968e-05 0 0)
(-2.6240934 -0.29601458 0 -3.515303e-05 0 0)
(-2.5801109 -0.29301677 0 3.2704755e-05 0 0)
(-2.6213014 -0.29582785 0 -3.1253102e-05 0 0)
(-2.5825034 -0.29318034 0 2.9237729e-05 0 0)
(-2.6189063 -0.29566628 0 -2.7723504e-05 0 0)
(-2.5846648 -0.29332804 0 2.6051352e-05 0 0)
(-2.6168033 -0.2955241 0 -2.4630241e-05 0 0)
(-2.5866059 -0.29346054 0 2.3199046e-05 0 0)
(-2.6149412 -0.29539811 0 -2.1917198e-05 0 0)
(-2.5883413 -0.29357886 0 2.0672274e-05 0 0)
(-2.6132865 -0.29528612 0 -1.9534392e-05 0 0)
(-2.5898903 -0.29368437 0 1.8445701e-05 0 0)
(-2.6118129 -0.29518641 0 -1.7443241e-05 0 0)
(-2.5912735 -0.29377846 0 1.649081e-05 0 0)
(-2.6104982 -0.29509749 0 -1.5611812e-05 0 0)
(-2.5925101 -0.29386246 0 1.4780136e-05 0 0)
(-2.6093226 -0.29501807 0 -1.4012531e-05 0 0)
(-2.5936183 -0.2939376 0 1.3288633e-05 0 0)
(-2.6082684 -0.29494694 0 -1.2621302e-05 0 0)
(-2.5946144 -0.29400498 0 1.1994048e-05 0 0)
(-2.6073197 -0.29488306 0 -1.1417127e-05 0 0)
(-2.5955131 -0.29406561 0 1.087694e-05 0 0)
(-2.6064621 -0.29482546 0 -1.0381865e-05 0 0)
(-2.5963279 -0.2941204 0 9.9205731e-06 0 0)
(-2.6056829 -0.29477329 0 -9.500042e-06 0 0)
(-2.5970709 -0.29417017 0 9.1107768e-06 0 0)
(-2.6049703 -0.29472576 0 -8.7587108e-06 0 0)
(-2.5977531 -0.29421565 0 8.4358608e-06 0 0)
(-2.6043136 -0.29468217 0 -8.1473881e-06 0 0)
(-2.5983846 -0.29425751 0 7.8866816e-06 0 0)
(-2.6037033 -0.29464188 0 -7.6582554e-06 0 0)
(-2.5989747 -0.29429639 0 7.456677e-06 0 0)
(-2.60313 -0.29460431 0 -7.2883831e-06 0 0)
(-2.5995316 -0.2943328 0 7.1406762e-06 0 0)
(-2.6025829 -0.29456878 0 -7.0401662e-06 0 0)
(-2.6000603 -0.2943669 0 6.9829528e-06 0 0)
(-2.6020598 -0.29453436 0 -6.7532267e-06 0 0)
(-2.6006469 -0.29440047 0 7.6900667e-06 0 0)
(-2.6018825 -0.29452443 0 -7.1316881e-06 0 0)
(-1.7967255 -0.83233676 0 -0.32974053 0 0)
(-3.8681747 -0.37798193 0 -0.011453242 0 0)
(-2.7990314 -0.31995732 0 -0.0053601754 0 0)
(-2.628437 -0.29560823 0 -0.00022730617 0 0)
(-2.4497486 -0.2856408 0 -6.4914315e-05 0 0)
(-2.5180238 -0.29029392 0 -9.4971764e-05 0 0)
(-2.4405935 -0.28499254 0 -1.7810054e-05 0 0)
(-2.4947569 -0.28873185 0 -4.6486785e-05 0 0)
(-2.4402441 -0.28488098 0 2.8402812e-05 0 0)
(-2.4882462 -0.28830209 0 -3.4274838e-05 0 0)
(-2.4428826 -0.28506474 0 3.1105807e-05 0 0)
(-2.4849991 -0.2880834 0 -3.0766599e-05 0 0)
(-2.4453009 -0.28523834 0 2.8439218e-05 0 0)
(-2.4824788 -0.28790652 0 -2.7355558e-05 0 0)
(-2.4474581 -0.28539366 0 2.5486754e-05 0 0)
(-2.4803132 -0.2877529 0 -2.4233531e-05 0 0)
(-2.449407 -0.28553392 0 2.2730983e-05 0 0)
(-2.4784119 -0.28761772 0 -2.1513343e-05 0 0)
(-2.4511571 -0.28565973 0 2.0248891e-05 0 0)
(-2.4767292 -0.28749798 0 -1.9137133e-05 0 0)
(-2.4527216 -0.28577208 0 1.8045197e-05 0 0)
(-2.4752346 -0.28739158 0 -1.7054085e-05 0 0)
(-2.454118 -0.28587225 0 1.6101971e-05 0 0)
(-2.473904 -0.28729686 0 -1.5227543e-05 0 0)
(-2.4553647 -0.28596157 0 1.4395576e-05 0 0)
(-2.4727171 -0.28721241 0 -1.3628472e-05 0 0)
(-2.4564793 -0.28604133 0 1.290233e-05 0 0)
(-2.471656 -0.28713695 0 -1.2232326e-05 0 0)
(-2.4574782 -0.28611268 0 1.1600397e-05 0 0)
(-2.4707044 -0.28706937 0 -1.1017874e-05 0 0)
(-2.4583761 -0.28617668 0 1.0470341e-05 0 0)
(-2.4698482 -0.28700865 0 -9.9667193e-06 0 0)
(-2.4591862 -0.2862343 0 9.4951996e-06 0 0)
(-2.4690744 -0.28695388 0 -9.0630333e-06 0 0)
(-2.4599207 -0.28628639 0 8.6604097e-06 0 0)
(-2.4683712 -0.28690425 0 -8.2933682e-06 0 0)
(-2.4605904 -0.28633373 0 7.9536912e-06 0 0)
(-2.4677283 -0.286859 0 -7.6465359e-06 0 0)
(-2.4612053 -0.28637702 0 7.3649912e-06 0 0)
(-2.467136 -0.28681749 0 -7.113577e-06 0 0)
(-2.4617745 -0.2864169 0 6.8866084e-06 0 0)
(-2.4665855 -0.28677908 0 -6.6880106e-06 0 0)
(-2.4623064 -0.28645396 0 6.5132268e-06 0 0)
(-2.4660686 -0.28674323 0 -6.3686237e-06 0 0)
(-2.4628084 -0.28648873 0 6.2397032e-06 0 0)
(-2.4655753 -0.28670932 0 -6.1611296e-06 0 0)
(-2.4632844 -0.28652126 0 6.1181239e-06 0 0)
(-2.4650991 -0.28667592 0 -5.8594754e-06 0 0)
(-2.4637983 -0.28655144 0 7.0672105e-06 0 0)
(-2.4648813 -0.28666408 0 -6.5692803e-06 0 0)
(-1.707274 -0.77761846 0 -0.29689657 0 0)
(-3.4475549 -0.35829234 0 -0.012398307 0 0)
(-2.6585362 -0.31629902 0 -0.0066243395 0 0)
(-2.5050556 -0.28873556 0 -0.00033499209 0 0)
(-2.3234872 -0.27812509 0 -0.00010800112 0 0)
(-2.3796649 -0.28224209 0 -0.00010596529 0 0)
(-2.3100864 -0.27726847 0 -3.6209803e-05 0 0)
(-2.3588902 -0.28077898 0 -4.3405893e-05 0 0)
(-2.309397 -0.27712008 0 2.1633734e-05 0 0)
(-2.3528777 -0.28036441 0 -2.9391661e-05 0 0)
(-2.3117018 -0.27728865 0 2.6362801e-05 0 0)
(-2.3499141 -0.28015808 0 -2.650018e-05 0 0)
(-2.3138842 -0.27745353 0 2.4321496e-05 0 0)
(-2.3476267 -0.27999031 0 -2.3571329e-05 0 0)
(-2.3158412 -0.27760135 0 2.1854128e-05 0 0)
(-2.3456594 -0.27984411 0 -2.0848312e-05 0 0)
(-2.317609 -0.2777348 0 1.9513533e-05 0 0)
(-2.343932 -0.27971544 0 -1.849142e-05 0 0)
(-2.319196 -0.27785448 0 1.7390069e-05 0 0)
(-2.342404 -0.27960151 0 -1.6442473e-05 0 0)
(-2.3206144 -0.27796133 0 1.5499564e-05 0 0)
(-2.3410473 -0.27950032 0 -1.4650325e-05 0 0)
(-2.3218803 -0.27805659 0 1.3830975e-05 0 0)
(-2.3398398 -0.27941024 0 -1.3080374e-05 0 0)
(-2.3230104 -0.27814153 0 1.2365349e-05 0 0)
(-2.3387631 -0.27932993 0 -1.170648e-05 0 0)
(-2.3240207 -0.27821737 0 1.1082686e-05 0 0)
(-2.3378005 -0.27925816 0 -1.050709e-05 0 0)
(-2.3249261 -0.27828524 0 9.9642832e-06 0 0)
(-2.3369375 -0.27919388 0 -9.4637833e-06 0 0)
(-2.3257399 -0.27834613 0 8.9934457e-06 0 0)
(-2.336161 -0.2791361 0 -8.560697e-06 0 0)
(-2.3264741 -0.27840096 0 8.1556149e-06 0 0)
(-2.3354594 -0.27908397 0 -7.7842373e-06 0 0)
(-2.3271397 -0.27845055 0 7.4383136e-06 0 0)
(-2.334822 -0.27903671 0 -7.1228933e-06 0 0)
(-2.3277465 -0.27849563 0 6.8310521e-06 0 0)
(-2.3342393 -0.27899361 0 -6.5671274e-06 0 0)
(-2.3283035 -0.27853688 0 6.3252873e-06 0 0)
(-2.3337027 -0.27895404 0 -6.1093537e-06 0 0)
(-2.3288189 -0.2785749 0 5.9145701e-06 0 0)
(-2.3332041 -0.27891742 0 -5.7441809e-06 0 0)
(-2.3293004 -0.27861026 0 5.5945225e-06 0 0)
(-2.3327362 -0.27888321 0 -5.4715299e-06 0 0)
(-2.3297548 -0.27864346 0 5.3594252e-06 0 0)
(-2.3322901 -0.27885084 0 -5.2995033e-06 0 0)
(-2.330185 -0.27867454 0 5.2637989e-06 0 0)
(-2.3318564 -0.27881856 0 -4.9819664e-06 0 0)
(-2.3306385 -0.27870198 0 6.3839236e-06 0 0)
(-2.3316135 -0.27880524 0 -5.9499609e-06 0 0)
(-1.6612217 -0.74555459 0 -0.27756606 0 0)
(-3.0583312 -0.34072972 0 -0.013504652 0 0)
(-2.5009312 -0.31119646 0 -0.0077620473 0 0)
(-2.3779957 -0.28158173 0 -0.00043022052 0 0)
(-2.2012685 -0.27063239 0 -0.00015562305 0 0)
(-2.2457449 -0.27419944 0 -0.0001175724 0 0)
(-2.1829016 -0.26951805 0 -5.1306335e-05 0 0)
(-2.2269921 -0.27282711 0 -4.067189e-05 0 0)
(-2.1819707 -0.26935133 0 1.6090233e-05 0 0)
(-2.2214422 -0.27243083 0 -2.5260539e-05 0 0)
(-2.1839978 -0.26950783 0 2.2480116e-05 0 0)
(-2.2187346 -0.27223663 0 -2.2943495e-05 0 0)
(-2.1859724 -0.26966486 0 2.0914831e-05 0 0)
(-2.2166556 -0.27207761 0 -2.0430148e-05 0 0)
(-2.1877521 -0.26980571 0 1.8840463e-05 0 0)
(-2.2148658 -0.27193849 0 -1.8040003e-05 0 0)
(-2.189359 -0.26993273 0 1.6844235e-05 0 0)
(-2.2132938 -0.27181601 0 -1.5984654e-05 0 0)
(-2.1908008 -0.27004659 0 1.5018934e-05 0 0)
(-2.2119037 -0.2717076 0 -1.4207364e-05 0 0)
(-2.1920892 -0.27014823 0 1.3388609e-05 0 0)
(-2.2106698 -0.27161133 0 -1.2656711e-05 0 0)
(-2.1932389 -0.27023883 0 1.1947992e-05 0 0)
(-2.209572 -0.27152565 0 -1.1299721e-05 0 0)
(-2.1942652 -0.27031962 0 1.0682107e-05 0 0)
(-2.2085932 -0.27144925 0 -1.011265e-05 0 0)
(-2.1951828 -0.27039176 0 9.5740629e-06 0 0)
(-2.2077183 -0.27138098 0 -9.0764416e-06 0 0)
(-2.196005 -0.27045631 0 8.6077911e-06 0 0)
(-2.206934 -0.27131981 0 -8.1750264e-06 0 0)
(-2.196744 -0.27051425 0 7.7688909e-06 0 0)
(-2.2062285 -0.27126483 0 -7.3946588e-06 0 0)
(-2.1974107 -0.27056644 0 7.044805e-06 0 0)
(-2.205591 -0.2712152 0 -6.7236023e-06 0 0)
(-2.1980151 -0.27061365 0 6.4247841e-06 0 0)
(-2.205012 -0.2711702 0 -6.1519446e-06 0 0)
(-2.198566 -0.27065659 0 5.8998066e-06 0 0)
(-2.2044829 -0.27112914 0 -5.6714931e-06 0 0)
(-2.1990716 -0.27069589 0 5.4625468e-06 0 0)
(-2.2039957 -0.27109143 0 -5.2757545e-06 0 0)
(-2.1995393 -0.27073213 0 5.1075271e-06 0 0)
(-2.2035433 -0.27105651 0 -4.9601426e-06 0 0)
(-2.199976 -0.27076585 0 4.8310246e-06 0 0)
(-2.2031189 -0.27102388 0 -4.7252825e-06 0 0)
(-2.200388 -0.27079754 0 4.6264929e-06 0 0)
(-2.2027146 -0.270993 0 -4.5810794e-06 0 0)
(-2.2007776 -0.27082722 0 4.5481399e-06 0 0)
(-2.2023195 -0.27096189 0 -4.2466157e-06 0 0)
(-2.2011788 -0.27085234 0 5.7839107e-06 0 0)
(-2.2020614 -0.27094727 0 -5.3908136e-06 0 0)
(-1.6135759 -0.71019334 0 -0.25643938 0 0)
(-2.6905736 -0.32346025 0 -0.01453683 0 0)
(-2.3340098 -0.30438582 0 -0.0085868657 0 0)
(-2.2448865 -0.2742491 0 -0.00059831073 0 0)
(-2.0835078 -0.26337909 0 -0.00024400546 0 0)
(-2.1171172 -0.26626195 0 -0.00013856509 0 0)
(-2.0596652 -0.26179025 0 -6.7111613e-05 0 0)
(-2.0992923 -0.26489237 0 -3.8846504e-05 0 0)
(-2.0581658 -0.26158459 0 1.1219062e-05 0 0)
(-2.093954 -0.26450302 0 -2.1744657e-05 0 0)
(-2.0598477 -0.26172529 0 1.9202426e-05 0 0)
(-2.0914289 -0.2643182 0 -1.9909085e-05 0 0)
(-2.0616129 -0.26187394 0 1.8023629e-05 0 0)
(-2.0895282 -0.26416723 0 -1.7756419e-05 0 0)
(-2.0632284 -0.26200794 0 1.6276602e-05 0 0)
(-2.0878976 -0.26403491 0 -1.5651148e-05 0 0)
(-2.0646894 -0.26212874 0 1.4573159e-05 0 0)
(-2.0864661 -0.26391841 0 -1.3852583e-05 0 0)
(-2.066 -0.26223699 0 1.3002024e-05 0 0)
(-2.0852007 -0.26381532 0 -1.2306507e-05 0 0)
(-2.067171 -0.26233359 0 1.1593344e-05 0 0)
(-2.0840778 -0.26372379 0 -1.096138e-05 0 0)
(-2.0682159 -0.26241971 0 1.0346793e-05 0 0)
(-2.0830791 -0.26364234 0 -9.7855904e-06 0 0)
(-2.0691487 -0.26249649 0 9.250854e-06 0 0)
(-2.0821886 -0.26356971 0 -8.7574323e-06 0 0)
(-2.0699826 -0.26256507 0 8.2913261e-06 0 0)
(-2.0813928 -0.2635048 0 -7.8599933e-06 0 0)
(-2.0707299 -0.26262645 0 7.454412e-06 0 0)
(-2.0806795 -0.26344664 0 -7.0792204e-06 0 0)
(-2.0714015 -0.26268154 0 6.7276799e-06 0 0)
(-2.0800379 -0.26339434 0 -6.4031786e-06 0 0)
(-2.0720075 -0.26273118 0 6.1002824e-06 0 0)
(-2.0794582 -0.26334713 0 -5.8217148e-06 0 0)
(-2.0725567 -0.2627761 0 5.5629395e-06 0 0)
(-2.0789318 -0.2633043 0 -5.3262718e-06 0 0)
(-2.0730573 -0.26281697 0 5.1078703e-06 0 0)
(-2.0784509 -0.26326521 0 -4.9097892e-06 0 0)
(-2.0735166 -0.26285439 0 4.7287669e-06 0 0)
(-2.0780082 -0.2632293 0 -4.566679e-06 0 0)
(-2.0739414 -0.26288891 0 4.4209449e-06 0 0)
(-2.0775972 -0.26319603 0 -4.2929922e-06 0 0)
(-2.0743379 -0.26292104 0 4.1811905e-06 0 0)
(-2.0772118 -0.26316493 0 -4.0898185e-06 0 0)
(-2.074712 -0.26295127 0 4.002147e-06 0 0)
(-2.0768451 -0.26313549 0 -3.9686222e-06 0 0)
(-2.0750653 -0.2629796 0 3.9361175e-06 0 0)
(-2.0764852 -0.26310558 0 -3.6203947e-06 0 0)
(-2.0754208 -0.26300272 0 5.2429256e-06 0 0)
(-2.0762195 -0.26308989 0 -4.8826931e-06 0 0)
(-1.5741619 -0.67019632 0 -0.23087396 0 0)
(-2.348219 -0.30808035 0 -0.01566641 0 0)
(-2.1757034 -0.29724489 0 -0.0090876498 0 0)
(-2.0966968 -0.26553085 0 -0.00075519594 0 0)
(-1.9561964 -0.25540026 0 -0.00031294139 0 0)
(-1.9893144 -0.25817954 0 -0.00015638105 0 0)
(-1.9382949 -0.25398293 0 -7.9617284e-05 0 0)
(-1.9748679 -0.25693604 0 -3.6832097e-05 0 0)
(-1.9376109 -0.25380401 0 7.1083976e-06 0 0)
(-1.9702182 -0.25657392 0 -1.8523704e-05 0 0)
(-1.9392031 -0.2539386 0 1.6363864e-05 0 0)
(-1.9679452 -0.25640133 0 -1.7190727e-05 0 0)
(-1.9408139 -0.25408058 0 1.5475434e-05 0 0)
(-1.9662205 -0.25625868 0 -1.5378854e-05 0 0)
(-1.9422861 -0.25420821 0 1.4005178e-05 0 0)
(-1.964737 -0.25613307 0 -1.3531662e-05 0 0)
(-1.9436157 -0.25432304 0 1.2559393e-05 0 0)
(-1.9634339 -0.25602238 0 -1.1962029e-05 0 0)
(-1.9448076 -0.25442587 0 1.1213666e-05 0 0)
(-1.9622818 -0.25592445 0 -1.0621293e-05 0 0)
(-1.9458722 -0.25451762 0 1.00017e-05 0 0)
(-1.9612598 -0.25583751 0 -9.4585156e-06 0 0)
(-1.9468221 -0.25459939 0 8.9273172e-06 0 0)
(-1.9603509 -0.25576015 0 -8.4434163e-06 0 0)
(-1.9476701 -0.25467232 0 7.9820842e-06 0 0)
(-1.9595407 -0.25569116 0 -7.5561391e-06 0 0)
(-1.9484282 -0.25473745 0 7.154221e-06 0 0)
(-1.9588166 -0.2556295 0 -6.7816973e-06 0 0)
(-1.9491077 -0.25479576 0 6.4319667e-06 0 0)
(-1.9581676 -0.25557423 0 -6.1078429e-06 0 0)
(-1.9497183 -0.25484811 0 5.8046492e-06 0 0)
(-1.9575838 -0.25552453 0 -5.524255e-06 0 0)
(-1.9502693 -0.25489529 0 5.2629428e-06 0 0)
(-1.9570565 -0.25547965 0 -5.0221858e-06 0 0)
(-1.9507687 -0.254938 0 4.7988696e-06 0 0)
(-1.9565777 -0.25543892 0 -4.5942758e-06 0 0)
(-1.9512238 -0.25497686 0 4.4057427e-06 0 0)
(-1.9561403 -0.25540174 0 -4.2344593e-06 0 0)
(-1.9516413 -0.25501246 0 4.0781449e-06 0 0)
(-1.9557378 -0.25536757 0 -3.9379365e-06 0 0)
(-1.9520273 -0.25504532 0 3.8120747e-06 0 0)
(-1.9553643 -0.25533589 0 -3.7012961e-06 0 0)
(-1.9523875 -0.25507591 0 3.6047487e-06 0 0)
(-1.9550142 -0.25530627 0 -3.5259433e-06 0 0)
(-1.9527273 -0.25510472 0 3.4481191e-06 0 0)
(-1.9546814 -0.25527824 0 -3.4247101e-06 0 0)
(-1.953048 -0.25513174 0 3.3916861e-06 0 0)
(-1.9543535 -0.25524956 0 -3.0669638e-06 0 0)
(-1.9533633 -0.25515314 0 4.7338011e-06 0 0)
(-1.9540858 -0.25523299 0 -4.4067411e-06 0 0)
(-1.5712673 -0.6369462 0 -0.20706519 0 0)
(-2.0511164 -0.29258604 0 -0.016197814 0 0)
(-2.0258398 -0.28721246 0 -0.0086482231 0 0)
(-1.9645601 -0.25987056 0 -0.001552165 0 0)
(-1.8398496 -0.24826113 0 -0.00050410407 0 0)
(-1.8678161 -0.25027693 0 -0.0001918697 0 0)
(-1.8215952 -0.24623775 0 -9.5885796e-05 0 0)
(-1.8547854 -0.24900542 0 -3.57999e-05 0 0)
(-1.8208198 -0.24603016 0 3.2000371e-06 0 0)
(-1.8504194 -0.24865168 0 -1.5652937e-05 0 0)
(-1.8221694 -0.24615127 0 1.3824977e-05 0 0)
(-1.8483036 -0.2484875 0 -1.4735353e-05 0 0)
(-1.8236068 -0.24628541 0 1.3189636e-05 0 0)
(-1.8467243 -0.24835224 0 -1.3234242e-05 0 0)
(-1.8249419 -0.24640664 0 1.1961873e-05 0 0)
(-1.8453724 -0.24823303 0 -1.162267e-05 0 0)
(-1.8261508 -0.24651566 0 1.0746763e-05 0 0)
(-1.8441858 -0.24812796 0 -1.0260163e-05 0 0)
(-1.8272345 -0.24661324 0 9.6039365e-06 0 0)
(-1.8431372 -0.24803501 0 -9.1045646e-06 0 0)
(-1.8282023 -0.24670029 0 8.5691517e-06 0 0)
(-1.842207 -0.2479525 0 -8.1060085e-06 0 0)
(-1.8290659 -0.24677789 0 7.6497888e-06 0 0)
(-1.8413798 -0.24787908 0 -7.2355487e-06 0 0)
(-1.8298368 -0.24684709 0 6.8402006e-06 0 0)
(-1.8406425 -0.2478136 0 -6.4750398e-06 0 0)
(-1.8305261 -0.2469089 0 6.1308144e-06 0 0)
(-1.8399836 -0.24775507 0 -5.811255e-06 0 0)
(-1.8311439 -0.24696425 0 5.5117227e-06 0 0)
(-1.8393931 -0.24770259 0 -5.2335854e-06 0 0)
(-1.8316992 -0.24701396 0 4.9738478e-06 0 0)
(-1.838862 -0.24765539 0 -4.7331694e-06 0 0)
(-1.8322002 -0.24705877 0 4.5092369e-06 0 0)
(-1.8383823 -0.24761276 0 -4.302524e-06 0 0)
(-1.8326542 -0.24709934 0 4.1110819e-06 0 0)
(-1.8379467 -0.24757406 0 -3.9353634e-06 0 0)
(-1.833068 -0.24713627 0 3.7736746e-06 0 0)
(-1.8375489 -0.24753872 0 -3.6265088e-06 0 0)
(-1.8334476 -0.24717011 0 3.4923893e-06 0 0)
(-1.837183 -0.24750623 0 -3.3718577e-06 0 0)
(-1.8337984 -0.24720135 0 3.2638227e-06 0 0)
(-1.8368434 -0.2474761 0 -3.1684633e-06 0 0)
(-1.8341257 -0.24723046 0 3.0855643e-06 0 0)
(-1.8365253 -0.24744792 0 -3.0179294e-06 0 0)
(-1.8344344 -0.24725788 0 2.9490194e-06 0 0)
(-1.8362232 -0.24742125 0 -2.9342341e-06 0 0)
(-1.8347257 -0.24728364 0 2.900325e-06 0 0)
(-1.8359246 -0.2473938 0 -2.5712106e-06 0 0)
(-1.8350054 -0.24730354 0 4.2476223e-06 0 0)
(-1.8356592 -0.24737654 0 -3.9587943e-06 0 0)
(-1.5845823 -0.60255718 0 -0.18187353 0 0)
(-1.8154023 -0.27980647 0 -0.016716717 0 0)
(-1.8732774 -0.27394168 0 -0.0076623952 0 0)
(-1.8271351 -0.25221735 0 -0.0019776608 0 0)
(-1.7214664 -0.24044259 0 -0.00060113831 0 0)
(-1.7486554 -0.24222763 0 -0.00020863916 0 0)
(-1.7075173 -0.23841846 0 -0.00010397094 0 0)
(-1.7381337 -0.24105305 0 -3.2944681e-05 0 0)
(-1.707383 -0.23824243 0 3.5475185e-07 0 0)
(-1.7343505 -0.2407278 0 -1.2828195e-05 0 0)
(-1.7086762 -0.23835967 0 1.1634694e-05 0 0)
(-1.7324521 -0.24057514 0 -1.2478959e-05 0 0)
(-1.709989 -0.23848778 0 1.114466e-05 0 0)
(-1.7310202 -0.24044764 0 -1.1288326e-05 0 0)
(-1.7112052 -0.2386031 0 1.0120031e-05 0 0)
(-1.7297913 -0.24033473 0 -9.8966601e-06 0 0)
(-1.7123049 -0.23870657 0 9.1103392e-06 0 0)
(-1.7287119 -0.24023512 0 -8.7229447e-06 0 0)
(-1.7132901 -0.2387991 0 8.1503572e-06 0 0)
(-1.7277578 -0.24014698 0 -7.7349479e-06 0 0)
(-1.7141697 -0.23888164 0 7.275574e-06 0 0)
(-1.7269115 -0.24006874 0 -6.8847768e-06 0 0)
(-1.7149545 -0.2389552 0 6.4962038e-06 0 0)
(-1.726159 -0.23999912 0 -6.1449203e-06 0 0)
(-1.7156552 -0.23902082 0 5.8090812e-06 0 0)
(-1.7254883 -0.23993702 0 -5.4988426e-06 0 0)
(-1.7162817 -0.23907944 0 5.2066429e-06 0 0)
(-1.7248889 -0.23988149 0 -4.9349329e-06 0 0)
(-1.7168433 -0.23913194 0 4.6806696e-06 0 0)
(-1.7243518 -0.23983171 0 -4.4440754e-06 0 0)
(-1.7173481 -0.23917911 0 4.2235304e-06 0 0)
(-1.7238687 -0.23978692 0 -4.0187297e-06 0 0)
(-1.7178036 -0.23922163 0 3.8285132e-06 0 0)
(-1.7234323 -0.23974645 0 -3.6525539e-06 0 0)
(-1.7182163 -0.23926014 0 3.4898629e-06 0 0)
(-1.7230362 -0.2397097 0 -3.3402266e-06 0 0)
(-1.7185925 -0.23929521 0 3.2027493e-06 0 0)
(-1.7226745 -0.23967615 0 -3.0773625e-06 0 0)
(-1.7189374 -0.23932735 0 2.9632528e-06 0 0)
(-1.7223418 -0.23964528 0 -2.8604788e-06 0 0)
(-1.7192562 -0.23935703 0 2.7684963e-06 0 0)
(-1.7220332 -0.23961665 0 -2.6870335e-06 0 0)
(-1.7195536 -0.23938469 0 2.6163963e-06 0 0)
(-1.7217442 -0.23958985 0 -2.5587353e-06 0 0)
(-1.7198339 -0.23941078 0 2.4979645e-06 0 0)
(-1.72147 -0.2395645 0 -2.4904551e-06 0 0)
(-1.7200985 -0.23943531 0 2.4556672e-06 0 0)
(-1.7211984 -0.23953829 0 -2.1261908e-06 0 0)
(-1.7203468 -0.23945389 0 3.7825086e-06 0 0)
(-1.7209383 -0.23952049 0 -3.5390225e-06 0 0)
(-1.5872713 -0.58374208 0 -0.16959832 0 0)
(-1.6388615 -0.2644717 0 -0.015579407 0 0)
(-1.7268497 -0.26654358 0 -0.0090203716 0 0)
(-1.6995287 -0.24369287 0 -0.002038453 0 0)
(-1.6101387 -0.23262085 0 -0.00064119188 0 0)
(-1.6348684 -0.23421169 0 -0.00021057613 0 0)
(-1.5977327 -0.2306137 0 -0.00010651251 0 0)
(-1.6256294 -0.2331119 0 -2.8467201e-05 0 0)
(-1.5976677 -0.23045585 0 -1.6096219e-06 0 0)
(-1.6221518 -0.23280837 0 -1.0050548e-05 0 0)
(-1.5988048 -0.23056652 0 9.7452211e-06 0 0)
(-1.6204073 -0.23266533 0 -1.0400572e-05 0 0)
(-1.5999842 -0.23068821 0 9.3103398e-06 0 0)
(-1.6191023 -0.23254503 0 -9.5177381e-06 0 0)
(-1.601088 -0.23079773 0 8.4556098e-06 0 0)
(-1.617985 -0.23243817 0 -8.3317116e-06 0 0)
(-1.6020874 -0.23089583 0 7.6291487e-06 0 0)
(-1.6170037 -0.23234382 0 -7.3306285e-06 0 0)
(-1.6029824 -0.2309835 0 6.8342458e-06 0 0)
(-1.6161363 -0.23226032 0 -6.494786e-06 0 0)
(-1.6037814 -0.23106169 0 6.104277e-06 0 0)
(-1.615367 -0.2321862 0 -5.7790376e-06 0 0)
(-1.6044942 -0.23113137 0 5.4516421e-06 0 0)
(-1.6146828 -0.23212023 0 -5.157413e-06 0 0)
(-1.6051307 -0.23119354 0 4.8753734e-06 0 0)
(-1.614073 -0.23206138 0 -4.6149015e-06 0 0)
(-1.6056999 -0.23124909 0 4.3697349e-06 0 0)
(-1.6135281 -0.23200875 0 -4.1413794e-06 0 0)
(-1.60621 -0.23129886 0 3.9280455e-06 0 0)
(-1.6130397 -0.23196155 0 -3.7290916e-06 0 0)
(-1.6066687 -0.23134357 0 3.5439881e-06 0 0)
(-1.6126005 -0.23191908 0 -3.3716955e-06 0 0)
(-1.6070825 -0.23138389 0 3.211973e-06 0 0)
(-1.6122039 -0.2318807 0 -3.0638796e-06 0 0)
(-1.6074575 -0.23142041 0 2.9271951e-06 0 0)
(-1.6118439 -0.23184584 0 -2.8011908e-06 0 0)
(-1.6077992 -0.23145368 0 2.6856132e-06 0 0)
(-1.6115152 -0.231814 0 -2.5799558e-06 0 0)
(-1.6081126 -0.23148418 0 2.4839401e-06 0 0)
(-1.6112129 -0.2317847 0 -2.3972453e-06 0 0)
(-1.6084021 -0.23151236 0 2.319765e-06 0 0)
(-1.6109326 -0.23175752 0 -2.2508749e-06 0 0)
(-1.6086721 -0.23153863 0 2.1912944e-06 0 0)
(-1.6106702 -0.23173206 0 -2.1425848e-06 0 0)
(-1.6089266 -0.23156341 0 2.0893068e-06 0 0)
(-1.6104215 -0.23170799 0 -2.0878694e-06 0 0)
(-1.6091668 -0.23158676 0 2.0524927e-06 0 0)
(-1.6101745 -0.23168301 0 -1.7262355e-06 0 0)
(-1.6093871 -0.23160418 0 3.3371974e-06 0 0)
(-1.6099222 -0.23166483 0 -3.1472167e-06 0 0)
(-1.5862589 -0.54720571 0 -0.14647615 0 0)
(-1.4885504 -0.25422579 0 -0.015669517 0 0)
(-1.5826272 -0.256128 0 -0.0090698466 0 0)
(-1.5811651 -0.23409097 0 -0.0015543216 0 0)
(-1.5061922 -0.22466479 0 -0.00056952424 0 0)
(-1.5261012 -0.22613813 0 -0.00018016387 0 0)
(-1.4920327 -0.2227797 0 -9.7260895e-05 0 0)
(-1.5171409 -0.22516398 0 -2.0341834e-05 0 0)
(-1.4916289 -0.22266281 0 -2.0284747e-06 0 0)
(-1.5137865 -0.22489008 0 -7.0511134e-06 0 0)
(-1.4925555 -0.22277052 0 8.2143484e-06 0 0)
(-1.5121552 -0.2247574 0 -8.4418565e-06 0 0)
(-1.4936005 -0.22288652 0 7.6750738e-06 0 0)
(-1.5109613 -0.22464423 0 -7.8944142e-06 0 0)
(-1.4945989 -0.22299054 0 6.9494383e-06 0 0)
(-1.5099456 -0.22454327 0 -6.9064905e-06 0 0)
(-1.4955059 -0.22308349 0 6.2845172e-06 0 0)
(-1.5090544 -0.22445401 0 -6.064865e-06 0 0)
(-1.4963182 -0.22316649 0 5.6385946e-06 0 0)
(-1.5082666 -0.22437499 0 -5.3678451e-06 0 0)
(-1.4970432 -0.22324049 0 5.0399945e-06 0 0)
(-1.5075678 -0.22430482 0 -4.7743239e-06 0 0)
(-1.4976901 -0.22330645 0 4.5024448e-06 0 0)
(-1.5069464 -0.22424236 0 -4.2601012e-06 0 0)
(-1.4982677 -0.2233653 0 4.0268543e-06 0 0)
(-1.5063924 -0.22418664 0 -3.8116455e-06 0 0)
(-1.4987843 -0.2234179 0 3.6091346e-06 0 0)
(-1.5058975 -0.2241368 0 -3.4202112e-06 0 0)
(-1.4992475 -0.22346502 0 3.244004e-06 0 0)
(-1.5054539 -0.2240921 0 -3.0792862e-06 0 0)
(-1.4996638 -0.22350737 0 2.9263391e-06 0 0)
(-1.505055 -0.22405186 0 -2.7836161e-06 0 0)
(-1.5000395 -0.22354557 0 2.6515671e-06 0 0)
(-1.5046947 -0.22401549 0 -2.5288218e-06 0 0)
(-1.5003799 -0.22358018 0 2.4157419e-06 0 0)
(-1.5043678 -0.22398245 0 -2.3112342e-06 0 0)
(-1.5006901 -0.22361171 0 2.2155344e-06 0 0)
(-1.5040694 -0.22395226 0 -2.1278217e-06 0 0)
(-1.5009744 -0.22364063 0 2.0482267e-06 0 0)
(-1.503795 -0.22392448 0 -1.9761523e-06 0 0)
(-1.5012372 -0.22366735 0 1.9118236e-06 0 0)
(-1.5035406 -0.22389869 0 -1.8543616e-06 0 0)
(-1.5014821 -0.22369228 0 1.8047931e-06 0 0)
(-1.5033025 -0.22387454 0 -1.7641661e-06 0 0)
(-1.501713 -0.2237158 0 1.7178399e-06 0 0)
(-1.5030771 -0.2238517 0 -1.7214045e-06 0 0)
(-1.501931 -0.22373801 0 1.6859258e-06 0 0)
(-1.5028528 -0.22382794 0 -1.366076e-06 0 0)
(-1.5021262 -0.22375439 0 2.9103213e-06 0 0)
(-1.50261 -0.22380951 0 -2.7825308e-06 0 0)
(-1.5828147 -0.5279686 0 -0.13552257 0 0)
(-1.3655387 -0.24193489 0 -0.014879453 0 0)
(-1.452253 -0.24565549 0 -0.0090353484 0 0)
(-1.4721426 -0.22507337 0 -0.001190755 0 0)
(-1.4063759 -0.21680519 0 -0.00050504813 0 0)
(-1.4219976 -0.21813372 0 -0.0001476021 0 0)
(-1.3902693 -0.21496338 0 -8.6377249e-05 0 0)
(-1.4126758 -0.2172312 0 -1.1667937e-05 0 0)
(-1.3893095 -0.21487279 0 -1.9231607e-06 0 0)
(-1.4092742 -0.21697727 0 -4.1147445e-06 0 0)
(-1.3899562 -0.21497377 0 6.9197858e-06 0 0)
(-1.4076986 -0.21685228 0 -6.6122835e-06 0 0)
(-1.3908522 -0.21508322 0 6.2084e-06 0 0)
(-1.4065934 -0.21674542 0 -6.4023297e-06 0 0)
(-1.3917467 -0.21518168 0 5.5824515e-06 0 0)
(-1.4056675 -0.21665003 0 -5.6041746e-06 0 0)
(-1.392567 -0.21526962 0 5.0602152e-06 0 0)
(-1.4048583 -0.21656565 0 -4.9103969e-06 0 0)
(-1.393303 -0.21534811 0 4.5489652e-06 0 0)
(-1.4041435 -0.21649093 0 -4.3404894e-06 0 0)
(-1.3939601 -0.21541808 0 4.0698338e-06 0 0)
(-1.4035095 -0.21642457 0 -3.8584579e-06 0 0)
(-1.3945465 -0.21548046 0 3.6370961e-06 0 0)
(-1.4029457 -0.2163655 0 -3.4421002e-06 0 0)
(-1.3950701 -0.21553612 0 3.2532274e-06 0 0)
(-1.4024432 -0.21631278 0 -3.0793316e-06 0 0)
(-1.3955385 -0.21558588 0 2.9156173e-06 0 0)
(-1.4019941 -0.21626562 0 -2.7626864e-06 0 0)
(-1.3959584 -0.21563046 0 2.6202563e-06 0 0)
(-1.4015916 -0.21622331 0 -2.4867898e-06 0 0)
(-1.3963359 -0.21567054 0 2.3631067e-06 0 0)
(-1.4012297 -0.21618523 0 -2.2473769e-06 0 0)
(-1.3966766 -0.2157067 0 2.140519e-06 0 0)
(-1.4009029 -0.2161508 0 -2.0409141e-06 0 0)
(-1.3969852 -0.21573947 0 1.9493254e-06 0 0)
(-1.4006064 -0.21611951 0 -1.8644422e-06 0 0)
(-1.3972664 -0.21576933 0 1.7868419e-06 0 0)
(-1.4003357 -0.21609092 0 -1.7155098e-06 0 0)
(-1.3975242 -0.21579672 0 1.6508649e-06 0 0)
(-1.4000869 -0.2160646 0 -1.5921342e-06 0 0)
(-1.3977624 -0.21582203 0 1.5397728e-06 0 0)
(-1.3998563 -0.21604016 0 -1.4927412e-06 0 0)
(-1.3979844 -0.21584565 0 1.4522709e-06 0 0)
(-1.3996405 -0.21601726 0 -1.4189818e-06 0 0)