/*--------------------------------*- C++ -*----------------------------------*\
| =========                 |                                                 |
| \\      /  F ield         | OpenFOAM: The Open Source CFD Toolbox           |
|  \\    /   O peration     | Version:  2312                                  |
|   \\  /    A nd           | Website:  www.openfoam.com                      |
|    \\/     M anipulation  |                                                 |
\*---------------------------------------------------------------------------*/
FoamFile
{
    version     2.0;
    format      ascii;
    arch        "LSB;label=32;scalar=64";
    class       volScalarField;
    location    "9";
    object      T;
}
// * * * * * * * * * * * * * * * * * * * * * * * * * * * * * * * * * * * * * //

dimensions      [0 0 0 1 0 0 0];

internalField   nonuniform List<scalar> 
4000
(
310.51918
311.79566
311.99458
312.07673
312.13476
312.18901
312.2307
312.27492
312.30995
312.34939
312.38131
312.4179
312.44806
312.48274
312.51177
312.54509
312.57335
312.60566
312.63338
312.66491
312.69221
312.72314
312.75011
312.78055
312.80727
312.83731
312.86381
312.89354
312.91985
312.94931
312.97547
313.00471
313.03072
313.05979
313.08566
313.11459
313.14032
313.16915
313.19475
313.2235
313.24896
313.27766
313.30299
313.33167
313.35683
313.38555
313.4105
313.43936
313.4639
313.49353
308.30578
310.50166
311.03919
311.23364
311.35557
311.46619
311.53925
311.61984
311.67294
311.7392
311.783
311.84071
311.8792
311.93119
311.9663
312.01423
312.04703
312.09193
312.12307
312.16565
312.19555
312.2363
312.26524
312.30453
312.33269
312.3708
312.39831
312.43546
312.46241
312.49877
312.52524
312.56095
312.58697
312.62216
312.64777
312.68255
312.70775
312.74221
312.76702
312.80124
312.82564
312.85972
312.8837
312.91774
312.94121
312.97537
312.99819
313.03277
313.0544
313.09117
306.89661
309.24765
310.09094
310.39474
310.57942
310.74558
310.84986
310.96638
311.03756
311.13034
311.18606
311.26468
311.31156
311.3807
311.42195
311.48435
311.52175
311.57913
311.61376
311.66728
311.69984
311.75034
311.78128
311.82935
311.85899
311.9051
311.93366
311.97818
312.00581
312.04901
312.07583
312.11797
312.14403
312.18531
312.21067
312.25126
312.27596
312.31601
312.34005
312.37972
312.40308
312.44252
312.46516
312.50453
312.52634
312.56591
312.58664
312.62689
312.64565
312.68928
305.94064
308.07138
309.16153
309.56635
309.81072
310.0304
310.16522
310.31669
310.40577
310.52446
310.59208
310.69117
310.74648
310.83243
310.87988
310.95648
310.99854
311.06818
311.10637
311.17066
311.20593
311.26602
311.29903
311.35576
311.38693
311.44094
311.47059
311.52238
311.55072
311.6007
311.62789
311.67638
311.70253
311.74982
311.77499
311.82132
311.84555
311.89115
311.91445
311.95951
311.98186
312.0266
312.04794
312.0926
312.11278
312.1577
312.17637
312.22224
312.23823
312.28829
305.26209
307.00495
308.26614
308.75716
309.05555
309.32511
309.48899
309.67373
309.78022
309.92379
310.00314
310.12197
310.18567
310.28789
310.34155
310.43193
310.4787
310.56026
310.60205
310.67683
310.71488
310.78433
310.81946
310.88464
310.91741
310.97913
311.00994
311.06885
311.09797
311.15457
311.1822
311.23693
311.2632
311.3164
311.34141
311.3934
311.4172
311.46825
311.49086
311.54123
311.56261
311.61258
311.63266
311.68252
311.70113
311.75131
311.76801
311.81936
311.83274
311.88874
304.76582
306.07214
307.42109
307.97751
308.32128
308.63523
308.82567
309.04115
309.16412
309.33105
309.42172
309.55926
309.63116
309.74889
309.80869
309.91226
309.96372
310.05673
310.10215
310.18704
310.2279
310.30638
310.34367
310.41704
310.45144
310.52066
310.55266
310.61849
310.64842
310.71149
310.73959
310.8004
310.82684
310.88581
310.91072
310.96822
310.99164
311.04803
311.06998
311.12555
311.14602
311.2011
311.21999
311.27494
311.29203
311.34735
311.36217
311.41884
311.42984
311.49124
304.39409
305.28431
306.64152
307.23847
307.61611
307.96705
308.1804
308.4232
308.56117
308.74944
308.85069
309.00558
309.0853
309.21754
309.28328
309.39927
309.45533
309.55918
309.60818
309.70267
309.74633
309.83344
309.87291
309.9541
309.99017
310.06657
310.09981
310.17229
310.20308
310.27237
310.301
310.36767
310.39433
310.45888
310.48372
310.54658
310.56967
310.63123
310.65259
310.7132
310.73282
310.79286
310.81062
310.87051
310.88618
310.94648
310.95953
311.02129
311.03017
311.09642
304.11119
304.64365
305.9396
306.5507
306.94842
307.32722
307.55868
307.8245
307.9754
308.18244
308.29322
308.46372
308.55067
308.69616
308.76749
308.89496
308.95539
309.06933
309.1218
309.22528
309.27167
309.3669
309.40851
309.4971
309.53483
309.61804
309.65251
309.73134
309.763
309.83822
309.8674
309.93969
309.96661
310.03651
310.06132
310.12932
310.15212
310.21866
310.23948
310.30495
310.32378
310.3886
310.40531
310.46994
310.48429
310.54935
310.56079
310.62735
310.63443
310.705
303.89213
304.14179
305.32318
305.92335
306.3261
306.72236
306.96611
307.24985
307.411
307.63377
307.75263
307.93668
308.03
308.18726
308.26365
308.40145
308.46593
308.58906
308.64477
308.75652
308.80551
308.90824
308.95191
309.0474
309.08672
309.17632
309.21199
309.29677
309.32929
309.41013
309.43985
309.51746
309.54464
309.61963
309.64444
309.71734
309.73989
309.81116
309.8315
309.9016
309.9197
309.98908
310.00482
310.07397
310.08711
310.15668
310.16668
310.23771
310.2433
310.3177
303.71982
303.76433
304.79547
305.36314
305.75586
306.15855
306.40804
306.70395
306.87218
307.10714
307.23229
307.42751
307.52611
307.6934
307.77416
307.92097
307.98904
308.12032
308.17895
308.29812
308.34948
308.45903
308.5046
308.6064
308.64721
308.74269
308.7795
308.8698
308.90314
308.98919
309.01945
309.10202
309.12947
309.20922
309.23406
309.31155
309.33388
309.40963
309.42952
309.50399
309.52142
309.5951
309.60996
309.68336
309.69541
309.76919
309.77793
309.85306
309.85747
309.93524
303.58174
303.49186
304.355
304.87372
305.24271
305.64088
305.88923
306.19117
306.36287
306.60619
306.73551
306.93925
307.0418
307.21719
307.30142
307.45578
307.52681
307.66508
307.72621
307.85187
307.90529
308.02088
308.06812
308.17556
308.21771
308.3185
308.35633
308.45166
308.48573
308.57657
308.6073
308.69446
308.72215
308.8063
308.83115
308.91291
308.93504
309.01494
309.03443
309.11297
309.12979
309.20747
309.22154
309.29888
309.30997
309.38762
309.3953
309.47412
309.47764
309.55838
303.46874
303.30332
303.99644
304.45547
304.78958
305.17312
305.41352
305.7153
305.88662
306.13422
306.26536
306.47477
306.57974
306.76113
306.8478
307.00808
307.08135
307.22533
307.28842
307.41952
307.47461
307.59537
307.64401
307.75636
307.79963
307.9051
307.94379
308.04359
308.07829
308.17342
308.20456
308.29585
308.32373
308.41189
308.43673
308.52239
308.54432
308.62803
308.64713
308.7294
308.74567
308.82701
308.84037
308.92132
308.93157
309.01273
309.01953
309.10162
309.1045
309.18784
303.37427
303.17791
303.71132
304.10571
304.39714
304.75744
304.98364
305.27927
305.44634
305.6941
305.82456
306.03669
306.14239
306.32756
306.41548
306.57998
306.65463
306.80295
306.86738
307.0028
307.0591
307.1841
307.23376
307.35024
307.39435
307.50382
307.54317
307.64685
307.68201
307.78091
307.81233
307.90728
307.93527
308.02701
308.05179
308.14094
308.16266
308.24979
308.26852
308.35415
308.36992
308.45456
308.46729
308.55146
308.56101
308.64527
308.65138
308.73632
308.73877
308.82435
303.29349
303.09691
303.48943
303.81932
304.06382
304.39427
304.60098
304.88503
305.04415
305.28808
305.41533
305.62721
305.73187
305.91856
306.00646
306.1734
306.24849
306.39972
306.46477
306.60334
306.6603
306.78855
306.83883
306.95859
307.00322
307.11596
307.15571
307.26263
307.29807
307.40016
307.43173
307.52982
307.55783
307.65266
307.67732
307.76952
307.79099
307.88112
307.89949
307.98808
308.00337
308.09092
308.1031
308.1901
308.19904
308.286
308.29157
308.37892
308.38111
308.46862
303.22307
303.0449
303.3198
303.58938
303.78608
304.08238
304.26555
304.53344
304.6813
304.91772
305.03932
305.24809
305.34991
305.53589
305.62244
305.79001
305.86455
306.01723
306.08213
306.22264
306.27966
306.41013
306.46055
306.58271
306.6275
306.74274
306.78261
306.89208
306.92758
307.03226
307.0638
307.16449
307.19238
307.2898
307.31426
307.40903
307.43021
307.5229
307.5409
307.63201
307.64686
307.73689
307.74857
307.83797
307.84643
307.93565
307.94082
308.03017
308.03221
308.12133
303.16061
303.01002
303.19175
303.40795
303.55877
303.81898
303.97603
304.22422
304.35808
304.58377
304.6975
304.9005
304.99777
305.18088
305.26475
305.43121
305.50415
305.65682
305.72078
305.86198
305.91843
306.05008
306.10014
306.2238
306.26834
306.38529
306.42495
306.53628
306.57158
306.67821
306.70953
306.81224
306.83987
306.93936
306.96351
307.06036
307.08119
307.17597
307.19356
307.28675
307.30117
307.39323
307.40447
307.49583
307.50388
307.59493
307.59981
307.69074
307.69272
307.78314
303.10454
302.98401
303.09555
303.26673
303.37577
303.6001
303.72992
303.95603
304.07388
304.28618
304.39015
304.58502
304.67618
304.85441
304.93434
305.098
305.16835
305.31958
305.38177
305.52247
305.57769
305.70947
305.75865
305.88289
305.92675
306.04461
306.08372
306.19619
306.23102
306.33895
306.36983
306.47397
306.50118
306.60217
306.6259
306.72432
306.74472
306.84109
306.85825
306.95304
306.96702
307.06066
307.0715
307.16437
307.17208
307.26451
307.26919
307.36129
307.36326
307.45468
303.05373
302.96158
303.02285
303.15774
303.23049
303.42088
303.52378
303.7266
303.82718
304.02413
304.11686
304.30164
304.38531
304.5569
304.63173
304.79105
304.85782
305.00628
305.06592
305.20494
305.25828
305.38918
305.43692
305.56085
305.60359
305.72155
305.75976
305.87265
305.90671
306.0153
306.04551
306.15047
306.17707
306.27902
306.30219
306.40165
306.42152
306.51899
306.53566
306.63158
306.64511
306.73986
306.75031
306.84424
306.85166
306.94503
306.94957
307.04244
307.04443
307.13652
303.00742
302.93984
302.96686
303.07372
303.11634
303.27602
303.35345
303.53288
303.61574
303.79609
303.87656
304.04971
304.12482
304.28826
304.35698
304.51058
304.57291
304.71737
304.7737
304.90996
304.96078
305.08982
305.13561
305.25835
305.29953
305.41682
305.45376
305.56635
305.59935
305.70793
305.73724
305.84242
305.86823
305.97056
305.99303
306.093
306.11225
306.21031
306.22643
306.32298
306.33604
306.43143
306.44149
306.53602
306.54318
306.63706
306.64149
306.73476
306.73676
306.8292
302.96508
302.91754
302.92239
303.00844
303.02716
303.1601
303.21444
303.3713
303.43671
303.59991
303.6676
303.82806
303.89382
304.04793
304.10973
304.25645
304.31358
304.45295
304.5053
304.6378
304.68552
304.81179
304.85513
304.97585
305.01506
305.13091
305.16623
305.27783
305.30947
305.41741
305.44557
305.55037
305.5752
305.67736
305.69898
305.79893
305.81745
305.91559
305.93109
306.02779
306.04034
306.13589
306.14557
306.24025
306.24716
306.34112
306.34545
306.43873
306.44075
306.5332
302.92629
302.89443
302.88566
302.95683
302.95746
303.06792
303.10213
303.238
303.28687
303.43299
303.48785
303.63504
303.69099
303.83491
303.88921
304.02812
304.07945
304.2128
304.2606
304.38845
304.43256
304.55524
304.59567
304.71361
304.75044
304.86415
304.8975
305.00746
305.03746
305.14414
305.17091
305.27476
305.29841
305.39985
305.42048
305.51988
305.53756
305.63529
305.6501
305.74646
305.75846
305.85372
305.86299
305.95737
305.96403
306.05766
306.06189
306.15481
306.15681
306.24894
302.89071
302.87081
302.85409
302.91498
302.90255
302.99473
303.01204
303.12901
303.16274
303.29242
303.33483
303.46861
303.51462
303.64784
303.69428
303.82469
303.86977
303.99636
304.03916
304.16162
304.20169
304.32005
304.35717
304.47164
304.50575
304.61665
304.64774
304.75542
304.78352
304.88836
304.91353
305.01587
305.03817
305.13835
305.15784
305.2562
305.27293
305.36976
305.38378
305.47935
305.49074
305.58526
305.59409
305.68776
305.69414
305.78705
305.79115
305.88335
305.88533
305.97679
302.85805
302.84719
302.82602
302.87997
302.85865
302.93639
302.94005
303.04048
303.06082
303.17513
303.20584
303.32645
303.36271
303.48503
303.52348
303.64495
303.68352
303.80281
303.84028
303.95675
303.99243
304.10586
304.13934
304.24975
304.28082
304.38835
304.41689
304.52175
304.54771
304.65016
304.67352
304.77383
304.79461
304.89305
304.91125
305.00809
305.02376
305.11923
305.1324
305.22672
305.23744
305.3308
305.33915
305.43169
305.43776
305.52957
305.53351
305.62464
305.62657
305.71703
302.82806
302.82404
302.80046
302.84978
302.82281
302.88942
302.88249
302.96883
302.97771
303.07802
303.09805
303.2061
303.23304
303.34455
303.37511
303.48746
303.51942
303.63105
303.66299
303.77303
303.80408
303.9121
303.9417
304.04753
304.07533
304.17897
304.20474
304.30627
304.32989
304.42947
304.45084
304.54865
304.56775
304.66398
304.68078
304.77564
304.79015
304.88383
304.89606
304.98872
304.99871
305.0905
305.09832
305.18935
305.19509
305.28543
305.28919
305.3789
305.38075
305.46987
302.80051
302.80175
302.77685
302.82302
302.79281
302.85103
302.83623
302.91084
302.91025
302.9981
303.00868
303.105
303.12329
303.22435
303.24731
303.35056
303.37599
303.47978
303.50614
303.60945
303.63575
303.73799
303.76355
303.8644
303.88875
303.98807
304.0109
304.10867
304.12978
304.22605
304.24529
304.34017
304.35746
304.45107
304.46636
304.55883
304.57209
304.66357
304.67479
304.7654
304.77461
304.86445
304.8717
304.96086
304.96621
305.05475
305.05828
305.14626
305.14801
305.23548
302.77516
302.78058
302.75491
302.79883
302.76707
302.81904
302.7987
302.86375
302.85558
302.93259
302.93504
303.02066
303.03112
303.12226
303.1381
303.23247
303.25159
303.34754
303.3684
303.46483
303.48636
303.58257
303.60401
303.69957
303.72037
303.81503
303.83481
303.92846
303.94694
304.03954
304.05654
304.14812
304.1635
304.25411
304.26778
304.3575
304.36943
304.45835
304.46849
304.5567
304.56507
304.65262
304.65924
304.74621
304.75113
304.83756
304.84083
304.92677
304.9284
305.0139
302.75184
302.76065
302.73452
302.77667
302.74451
302.79184
302.76782
302.82521
302.81122
302.87897
302.87465
302.95067
302.95423
303.03617
303.04547
303.13134
303.1445
303.23277
303.24831
303.33785
303.35468
303.44475
303.46207
303.55215
303.56936
303.65912
303.67578
303.76502
303.78081
303.86943
303.88411
303.97206
303.98546
304.07275
304.08475
304.17139
304.18192
304.26796
304.27698
304.36246
304.36994
304.4549
304.46085
304.54532
304.54978
304.6338
304.63677
304.72039
304.72188
304.80513
302.73037
302.74202
302.7156
302.75624
302.72439
302.76825
302.74202
302.79333
302.77506
302.83504
302.82523
302.89281
302.89046
302.96398
302.96744
303.04532
303.05298
303.13383
303.14434
303.22711
303.23941
303.32332
303.33661
303.4211
303.43475
303.51945
303.53299
303.61762
303.63069
303.71509
303.72741
303.81149
303.82286
303.90655
303.91684
304.00012
304.00922
304.0921
304.09994
304.18242
304.18897
304.27106
304.27631
304.35802
304.36198
304.44333
304.44599
304.52702
304.52835
304.6091
302.71059
302.72467
302.69813
302.73736
302.70626
302.74746
302.7201
302.76663
302.74539
302.79891
302.78483
302.84509
302.8378
302.90376
302.90211
302.97258
302.97528
303.0491
303.05495
303.13114
303.13917
303.217
303.22642
303.30532
303.31551
303.39505
303.40552
303.48541
303.49578
303.57579
303.58576
303.66576
303.6751
303.75498
303.76353
303.84323
303.85087
303.93035
303.937
304.01624
304.02184
304.10082
304.10534
304.18406
304.18749
304.26594
304.26825
304.34647
304.34764
304.42563
302.69239
302.70856
302.68207
302.71995
302.68984
302.7289
302.70121
302.74396
302.7208
302.76903
302.75175
302.80574
302.79445
302.8537
302.84771
302.91141
302.90972
302.97695
302.97858
303.0485
303.05256
303.12448
303.13025
303.20362
303.2105
303.28489
303.29239
303.36747
303.3752
303.45073
303.45837
303.53416
303.54148
303.6174
303.62422
303.70016
303.70634
303.78224
303.78768
303.86348
303.86811
303.94379
303.94757
304.02309
304.02597
304.10133
304.10329
304.17849
304.17948
304.25452
302.67565
302.69365
302.6674
302.70394
302.67494
302.71221
302.68473
302.72446
302.70023
302.74411
302.72457
302.77323
302.75882
302.81218
302.80259
302.86018
302.85472
302.91586
302.91373
302.97773
302.97819
303.04443
303.04683
303.11481
303.11858
303.18788
303.19256
303.26283
303.26803
303.33902
303.34442
303.41591
303.42127
303.4931
303.49822
303.57028
303.57501
303.64719
303.65143
303.72365
303.72731
303.79953
303.80255
303.87472
303.87705
303.94914
303.95073
304.02274
304.02355
304.09546
302.6603
302.67991
302.65406
302.6893
302.66146
302.69717
302.67025
302.70751
302.68285
302.72316
302.70213
302.7463
302.72954
302.77779
302.7653
302.81743
302.80879
302.86436
302.85898
302.91745
302.91471
302.97556
302.97489
303.03768
303.03858
303.1029
303.10495
303.17047
303.17328
303.23974
303.243
303.31017
303.31364
303.38134
303.38481
303.4529
303.45623
303.52458
303.52765
303.59618
303.59888
303.66752
303.66979
303.73848
303.74025
303.80895
303.81018
303.87886
303.87949
303.94812
302.64628
302.6673
302.64205
302.67602
302.64935
302.68361
302.65746
302.69266
302.66803
302.70539
302.68349
302.72387
302.70546
302.74928
302.73454
302.78184
302.77061
302.82113
302.81299
302.86635
302.86081
302.9166
302.91321
302.97104
302.96935
303.02886
303.02848
303.08937
303.08995
303.15194
303.1532
303.21606
303.21775
303.2813
303.28321
303.34729
303.34927
303.41375
303.41567
303.48045
303.48222
303.5472
303.54873
303.61385
303.61508
303.68029
303.68115
303.7464
303.74685
303.81209
302.63356
302.65583
302.63134
302.66406
302.63855
302.67144
302.64619
302.67959
302.65531
302.6902
302.66792
302.70511
302.6856
302.72561
302.70922
302.75226
302.73897
302.78496
302.77453
302.82321
302.8153
302.86637
302.8606
302.91375
302.90975
302.96467
302.9621
303.0185
303.01706
303.07468
303.07408
303.13271
303.13273
303.19216
303.1926
303.25268
303.25339
303.31398
303.31482
303.3758
303.37668
303.43796
303.43878
303.50028
303.50098
303.56263
303.56314
303.62489
303.62515
303.68694
302.62216
302.64553
302.62191
302.65342
302.62903
302.66059
302.63628
302.66808
302.64436
302.67713
302.65485
302.68931
302.66919
302.70591
302.68836
302.72767
302.71282
302.75475
302.7425
302.78693
302.77704
302.82376
302.81596
302.86472
302.85872
302.90927
302.90478
302.95687
302.9536
303.007
303.00472
303.0592
303.0577
303.11309
303.11217
303.16829
303.16781
303.22453
303.22436
303.28156
303.28159
303.33916
303.33931
303.39716
303.39735
303.45542
303.45559
303.5138
303.5139
303.57217
302.61215
302.63643
302.61376
302.64406
302.62075
302.651
302.62765
302.65794
302.63494
302.66583
302.64383
302.67595
302.65558
302.68946
302.67119
302.70722
302.69125
302.72958
302.71591
302.7565
302.74502
302.78775
302.77826
302.82295
302.81524
302.86168
302.85551
302.90351
302.89864
302.94797
302.9442
302.99468
302.9918
303.04324
303.04108
303.09333
303.09176
303.14467
303.14356
303.19701
303.19626
303.25014
303.24966
303.30388
303.3036
303.35807
303.35793
303.41258
303.41253
303.46728
302.60367
302.62859
302.60688
302.63597
302.61367
302.64261
302.6202
302.64907
302.62685
302.65606
302.63453
302.66458
302.64427
302.67568
302.65703
302.69019
302.67348
302.7086
302.69392
302.73104
302.71833
302.7574
302.74656
302.78748
302.77836
302.82096
302.81337
302.8575
302.85125
302.89672
302.89163
302.93826
302.93417
302.9818
302.97854
303.02701
303.02446
303.07364
303.07168
303.12145
303.11998
303.17023
303.16917
303.2198
303.21908
303.27
303.26956
303.32068
303.32048
303.37173
302.59687
302.62206
302.60126
302.6291
302.60774
302.63537
302.61386
302.64136
302.61995
302.64761
302.62667
302.65489
302.63486
302.66409
302.64536
302.67599
302.65886
302.69113
302.67575
302.70976
302.69615
302.73191
302.72002
302.75747
302.74721
302.78625
302.77749
302.81799
302.81058
302.85239
302.84618
302.88914
302.88399
302.92796
302.92373
302.96857
302.96514
303.01071
303.00799
303.05417
303.05206
303.09875
303.09717
303.14427
303.14315
303.19057
303.18986
303.23751
303.23717
303.28496
302.59186
302.61684
302.59684
302.62338
302.6029
302.6292
302.60855
302.6347
302.61411
302.64032
302.62005
302.64662
302.62701
302.6543
302.63572
302.66411
302.64684
302.67657
302.66079
302.692
302.67778
302.71052
302.69787
302.73214
302.72101
302.75675
302.74706
302.78417
302.77582
302.81418
302.80704
302.84653
302.84049
302.88096
302.87591
302.91725
302.91307
302.95515
302.95176
302.99448
302.9918
303.03503
303.03299
303.07666
303.07518
303.11919
303.11824
303.16248
303.16202
303.20642
302.58864
302.61289
302.59356
302.61874
302.59905
302.62402
302.60419
302.62901
302.60924
302.63405
302.61451
302.63954
302.62049
302.64603
302.62777
302.65414
302.63695
302.66441
302.64847
302.67717
302.66259
302.69261
302.67944
302.71081
302.69905
302.73175
302.72136
302.75532
302.74622
302.78136
302.77348
302.80968
302.80291
302.84008
302.83433
302.87234
302.86753
302.90627
302.90232
302.94169
302.93852
302.97843
302.97598
303.01632
303.01454
303.05523
303.05407
303.09501
303.09444
303.13554
302.58703
302.61009
302.59129
302.61508
302.59611
302.61975
302.6007
302.62421
302.60523
302.6287
302.60991
302.6335
302.61508
302.63902
302.62121
302.64577
302.62883
302.65424
302.63835
302.66478
302.65007
302.67761
302.66415
302.69287
302.6807
302.7106
302.69972
302.73076
302.72112
302.75325
302.74479
302.77792
302.77058
302.80462
302.79832
302.83317
302.82784
302.86341
302.85898
302.89517
302.89159
302.9283
302.92551
302.96265
302.96061
302.9981
302.99677
303.03451
303.03385
303.07176
302.58669
302.60824
302.58989
302.61228
302.59396
302.61629
302.59797
302.62019
302.60198
302.62417
302.60613
302.62836
302.61061
302.63308
302.61581
302.63872
302.62216
302.64572
302.63004
302.65442
302.63975
302.66506
302.65149
302.6778
302.66541
302.69275
302.68155
302.70991
302.69989
302.72923
302.72035
302.75062
302.74284
302.77396
302.76723
302.79911
302.79337
302.82593
302.82112
302.85428
302.85037
302.88403
302.88097
302.91505
302.9128
302.94722
302.94574
302.98042
302.97969
303.01452
302.58718
302.60714
302.5892
302.61019
302.5925
302.61352
302.59592
302.61688
302.59942
302.62035
302.60306
302.624
302.60695
302.62804
302.61138
302.63277
302.61668
302.63857
302.62322
302.64574
302.63126
302.65453
302.64103
302.66514
302.65269
302.67769
302.66633
302.69223
302.68198
302.70875
302.6996
302.7272
302.71912
302.74751
302.74046
302.76955
302.76351
302.79324
302.78815
302.81844
302.81427
302.84505
302.84177
302.87295
302.87052
302.90203
302.90043
302.93218
302.93139
302.9633
302.58809
302.60655
302.58904
302.60868
302.5916
302.61136
302.59444
302.61418
302.59745
302.61716
302.60061
302.62032
302.60398
302.62376
302.60775
302.62774
302.6122
302.63254
302.61762
302.63845
302.62427
302.6457
302.63238
302.6545
302.64212
302.66498
302.65361
302.67724
302.6669
302.6913
302.682
302.70715
302.69888
302.72473
302.71748
302.74397
302.73772
302.76479
302.7595
302.7871
302.78275
302.8108
302.80736
302.83579
302.83324
302.86199
302.8603
302.88928
302.88844
302.91758
302.58913
302.60627
302.58926
302.60763
302.59115
302.60969
302.59344
302.612
302.59598
302.61452
302.59869
302.61721
302.60159
302.62014
302.60479
302.62347
302.60852
302.62744
302.61302
302.6323
302.61853
302.63826
302.62524
302.64553
302.63335
302.65425
302.64298
302.66454
302.65423
302.67645
302.66712
302.68999
302.68165
302.70514
302.69779
302.72186
302.71549
302.74009
302.73467
302.75975
302.75528
302.78078
302.77723
302.80308
302.80044
302.82659
302.82484
302.8512
302.85033
302.87685
302.59012
302.60617
302.58972
302.6069
302.59104
302.60842
302.59284
302.61026
302.59493
302.61234
302.59722
302.61461
302.59969
302.61707
302.6024
302.61984
302.60552
302.62312
302.60925
302.6271
302.61379
302.63198
302.61933
302.63795
302.62605
302.64517
302.63411
302.65376
302.64358
302.66379
302.65454
302.67531
302.667
302.68831
302.68095
302.70278
302.69636
302.71866
302.71319
302.73592
302.73138
302.7545
302.75089
302.77433
302.77164
302.79535
302.79356
302.81748
302.81659
302.84065
302.591
302.60613
302.59032
302.60641
302.59118
302.60747
302.59255
302.60888
302.59423
302.61056
302.59613
302.61242
302.5982
302.61446
302.60048
302.61675
302.60307
302.61943
302.60614
302.62267
302.60987
302.62664
302.61443
302.63152
302.61998
302.63746
302.62668
302.64459
302.63463
302.653
302.6439
302.66275
302.65453
302.67385
302.66654
302.6863
302.67991
302.70009
302.69462
302.71518
302.71063
302.73154
302.72791
302.74911
302.7464
302.76784
302.76603
302.78766
302.78676
302.80852
302.59175
302.60611
302.59098
302.60608
302.59149
302.60675
302.59249
302.60779
302.59381
302.6091
302.59535
302.61059
302.59705
302.61224
302.59893
302.6141
302.60106
302.61626
302.60358
302.61887
302.60662
302.62207
302.61034
302.62602
302.6149
302.63088
302.62044
302.63677
302.62708
302.64378
302.63489
302.65198
302.64393
302.66141
302.65423
302.67209
302.66578
302.684
302.67859
302.69714
302.69263
302.71149
302.70788
302.727
302.72429
302.74363
302.74183
302.76133
302.76044
302.78006
302.5924
302.60606
302.59166
302.60583
302.59191
302.6062
302.59261
302.60692
302.5936
302.6079
302.59481
302.60905
302.59617
302.61035
302.59768
302.61181
302.5994
302.61352
302.60143
302.61558
302.60389
302.61813
302.6069
302.6213
302.61062
302.62523
302.61518
302.63005
302.62069
302.63586
302.62724
302.64272
302.63489
302.65069
302.64368
302.6598
302.65363
302.67005
302.66474
302.68145
302.67701
302.69398
302.69042
302.70762
302.70496
302.72235
302.72057
302.73811
302.73722
302.75488
302.59296
302.60598
302.59231
302.60563
302.59239
302.60577
302.59283
302.60622
302.59355
302.6069
302.59445
302.60774
302.5955
302.6087
302.59667
302.6098
302.59802
302.61111
302.59963
302.6127
302.60158
302.61469
302.60399
302.61719
302.60699
302.62034
302.61072
302.62425
302.61526
302.62902
302.62072
302.63473
302.62716
302.64143
302.63463
302.64916
302.64316
302.65794
302.65277
302.66778
302.66345
302.67869
302.67522
302.69065
302.68804
302.70364
302.7019
302.71764
302.71677
302.7326
302.59344
302.60587
302.59292
302.60546
302.59288
302.60542
302.59313
302.60564
302.5936
302.60605
302.59423
302.6066
302.59498
302.60725
302.59584
302.60802
302.59685
302.60897
302.59807
302.61015
302.59958
302.61165
302.60148
302.61358
302.60387
302.61607
302.60688
302.6192
302.6106
302.62308
302.61512
302.62779
302.62052
302.63338
302.62684
302.63991
302.63412
302.6474
302.64239
302.65587
302.65167
302.66533
302.66195
302.67578
302.67324
302.6872
302.68551
302.69959
302.69874
302.71292
302.59386
302.60571
302.59348
302.60527
302.59337
302.60511
302.59346
302.60514
302.59372
302.60531
302.59409
302.60558
302.59456
302.60595
302.59513
302.60641
302.59583
302.60702
302.59671
302.60783
302.59783
302.60892
302.59928
302.61037
302.60115
302.61228
302.60354
302.61475
302.60656
302.61787
302.61028
302.62172
302.61477
302.62636
302.62009
302.63184
302.62628
302.63819
302.63338
302.64544
302.6414
302.65362
302.65036
302.66272
302.66027
302.67274
302.6711
302.68368
302.68286
302.69551
302.59421
302.60552
302.59399
302.60508
302.59383
302.60482
302.5938
302.60469
302.59385
302.60463
302.59399
302.60465
302.59419
302.60473
302.59448
302.60491
302.59489
302.60522
302.59546
302.60571
302.59624
302.60642
302.5973
302.60745
302.59872
302.60887
302.6006
302.61078
302.60301
302.61325
302.60603
302.61636
302.60975
302.62018
302.6142
302.62475
302.61944
302.63011
302.62551
302.6363
302.63243
302.64333
302.64021
302.65123
302.64888
302.66
302.65843
302.66963
302.66884
302.68011
302.59452
302.60529
302.59443
302.60486
302.59426
302.60453
302.59411
302.60424
302.59398
302.60397
302.59388
302.60374
302.59383
302.60357
302.59386
302.60348
302.594
302.60351
302.59429
302.6037
302.59476
302.60409
302.59548
302.60476
302.59651
302.60576
302.59794
302.60719
302.59984
302.60911
302.60227
302.61159
302.60532
302.6147
302.60902
302.61848
302.61344
302.62298
302.6186
302.62823
302.62454
302.63427
302.63129
302.6411
302.63886
302.64875
302.64724
302.6572
302.65645
302.66647
302.59477
302.60504
302.59483
302.60461
302.59463
302.60422
302.59437
302.60378
302.59406
302.60331
302.59374
302.60284
302.59345
302.60242
302.59323
302.60208
302.59311
302.60185
302.59314
302.60177
302.59334
302.60188
302.59376
302.60223
302.59446
302.60287
302.5955
302.60389
302.59696
302.60534
302.59889
302.60729
302.60136
302.60979
302.60442
302.61289
302.60812
302.61664
302.61249
302.62108
302.61758
302.62624
302.62341
302.63213
302.63
302.63878
302.63735
302.64619
302.64548
302.65437
302.59497
302.60475
302.59516
302.60434
302.59494
302.60387
302.59456
302.60327
302.59407
302.60259
302.59352
302.60189
302.593
302.60124
302.59254
302.60066
302.59219
302.6002
302.59197
302.59988
302.59193
302.59973
302.59209
302.59981
302.5925
302.60015
302.59321
302.60082
302.59429
302.60187
302.59579
302.60336
302.59777
302.60534
302.60028
302.60786
302.60336
302.61097
302.60705
302.6147
302.61139
302.61908
302.61641
302.62415
302.62213
302.62992
302.62857
302.6364
302.63572
302.6436
302.59512
302.60444
302.59545
302.60403
302.59518
302.60347
302.59466
302.6027
302.59397
302.6018
302.5932
302.60087
302.59244
302.59999
302.59176
302.59919
302.59119
302.59851
302.59076
302.59798
302.59049
302.59761
302.59042
302.59745
302.59058
302.59753
302.59102
302.5979
302.59178
302.59861
302.59291
302.59972
302.59447
302.60126
302.5965
302.60328
302.59905
302.60584
302.60215
302.60895
302.60584
302.61267
302.61016
302.61702
302.61511
302.62201
302.62073
302.62766
302.62702
302.63399
302.59522
302.60411
302.59568
302.60368
302.59534
302.60299
302.59465
302.60202
302.59374
302.6009
302.59274
302.59975
302.59176
302.59865
302.59086
302.59765
302.59009
302.59677
302.58946
302.59605
302.589
302.59549
302.58873
302.59512
302.58867
302.59498
302.58887
302.5951
302.58936
302.59553
302.59019
302.5963
302.59139
302.59747
302.59302
302.59908
302.59511
302.60115
302.5977
302.60374
302.60082
302.60688
302.60452
302.61059
302.60881
302.6149
302.61371
302.61983
302.61923
302.62538
302.59528
302.60377
302.59585
302.60328
302.5954
302.60243
302.5945
302.60123
302.59335
302.59987
302.59212
302.59849
302.59092
302.59718
302.58982
302.59599
302.58887
302.59495
302.58806
302.59405
302.58743
302.59333
302.58699
302.59279
302.58675
302.59246
302.58674
302.59237
302.587
302.59256
302.58756
302.59306
302.58847
302.59392
302.58975
302.59516
302.59145
302.59683
302.5936
302.59897
302.59624
302.60161
302.5994
302.60477
302.6031