/*--------------------------------*- C++ -*----------------------------------*\
| =========                 |                                                 |
| \\      /  F ield         | OpenFOAM: The Open Source CFD Toolbox           |
|  \\    /   O peration     | Version:  2312                                  |
|   \\  /    A nd           | Website:  www.openfoam.com                      |
|    \\/     M anipulation  |                                                 |
\*---------------------------------------------------------------------------*/
FoamFile
{
    version     2.0;
    format      ascii;
    arch        "LSB;label=32;scalar=64";
    class       volVectorField;
    location    "9";
    object      U;
}
// * * * * * * * * * * * * * * * * * * * * * * * * * * * * * * * * * * * * * //

dimensions      [0 1 -1 0 0 0 0];

internalField   nonuniform List<vector> 
4000
(
(0.0026799169 0.00052969333 0)
(0.0043109852 -1.0140301e-05 0)
(0.0028684558 -3.8861784e-07 0)
(0.0031121895 7.0754512e-08 0)
(0.0030044782 -2.029587e-07 0)
(0.0030581854 1.8846993e-07 0)
(0.0029969765 -2.1411243e-07 0)
(0.003039811 1.8295499e-07 0)
(0.0029992518 -1.7545606e-07 0)
(0.0030351508 1.6393152e-07 0)
(0.0030015739 -1.5451544e-07 0)
(0.0030326977 1.4532716e-07 0)
(0.0030034139 -1.3712809e-07 0)
(0.0030308348 1.2917164e-07 0)
(0.003005018 -1.2188743e-07 0)
(0.003029256 1.1492261e-07 0)
(0.0030064592 -1.0843387e-07 0)
(0.0030278693 1.0229881e-07 0)
(0.0030077525 -9.6543412e-08 0)
(0.0030266377 9.1131471e-08 0)
(0.0030089101 -8.604423e-08 0)
(0.0030255395 8.127465e-08 0)
(0.0030099456 -7.6791331e-08 0)
(0.003024558 7.2596728e-08 0)
(0.0030108724 -6.8657595e-08 0)
(0.0030236795 6.4979227e-08 0)
(0.0030117029 -6.1530013e-08 0)
(0.0030228915 5.8315839e-08 0)
(0.0030124486 -5.5307805e-08 0)
(0.0030221831 5.2511622e-08 0)
(0.0030131202 -4.9901382e-08 0)
(0.0030215442 4.7482364e-08 0)
(0.0030137271 -4.5231664e-08 0)
(0.0030209654 4.3154043e-08 0)
(0.0030142782 -4.1229525e-08 0)
(0.0030204384 3.9462321e-08 0)
(0.0030147817 -3.7835275e-08 0)
(0.0030199553 3.635204e-08 0)
(0.003015245 -3.499817e-08 0)
(0.0030195091 3.377677e-08 0)
(0.0030156749 -3.267598e-08 0)
(0.0030190931 3.1698538e-08 0)
(0.0030160777 -3.0834889e-08 0)
(0.0030187011 3.0087282e-08 0)
(0.0030164588 -2.9452722e-08 0)
(0.0030183262 2.8916726e-08 0)
(0.0030168259 -2.8523846e-08 0)
(0.003017988 2.8226681e-08 0)
(0.0030172953 -2.7691395e-08 0)
(0.0030180165 3.0079786e-08 0)
(0.0068793911 0.0013807434 0)
(0.0118267 2.0811535e-06 0)
(0.0085686958 1.4114764e-05 0)
(0.0089812469 -5.9059009e-07 0)
(0.0087199027 -1.8910794e-07 0)
(0.0088771063 8.6241622e-07 0)
(0.0086991448 -4.8223885e-07 0)
(0.008824694 6.5602246e-07 0)
(0.0087050376 -5.8473183e-07 0)
(0.0088117737 5.7798662e-07 0)
(0.0087119871 -5.4174469e-07 0)
(0.0088047017 5.1682064e-07 0)
(0.0087174738 -4.856209e-07 0)
(0.0087991975 4.5989757e-07 0)
(0.0087222667 -4.3283778e-07 0)
(0.0087944956 4.0886901e-07 0)
(0.0087265771 -3.8534719e-07 0)
(0.008790358 3.6376826e-07 0)
(0.0087304447 -3.4315113e-07 0)
(0.0087866819 3.2397179e-07 0)
(0.0087339059 -3.0583908e-07 0)
(0.0087834037 2.8889449e-07 0)
(0.0087370015 -2.7294888e-07 0)
(0.0087804742 2.5803749e-07 0)
(0.0087397719 -2.4404211e-07 0)
(0.0087778518 2.3096583e-07 0)
(0.0087422547 -2.1871843e-07 0)
(0.0087754995 2.0729443e-07 0)
(0.0087444846 -1.9661771e-07 0)
(0.0087733837 1.8668147e-07 0)
(0.0087464936 -1.774192e-07 0)
(0.008771474 1.6882489e-07 0)
(0.0087483106 -1.6084006e-07 0)
(0.0087697427 1.534599e-07 0)
(0.0087499622 -1.4663337e-07 0)
(0.0087681642 1.4035678e-07 0)
(0.0087514729 -1.3458613e-07 0)
(0.0087667154 1.2931868e-07 0)
(0.0087528649 -1.2451716e-07 0)
(0.0087653747 1.2017943e-07 0)
(0.008754159 -1.1627515e-07 0)
(0.0087641223 1.1280207e-07 0)
(0.0087553743 -1.0973452e-07 0)
(0.0087629392 1.070852e-07 0)
(0.0087565272 -1.0478612e-07 0)
(0.0087618041 1.0292069e-07 0)
(0.0087576345 -1.0166473e-07 0)
(0.0087607403 9.8953469e-08 0)
(0.0087589421 -1.0441745e-07 0)
(0.0087606004 9.5423403e-08 0)
(0.010854024 0.0021417327 0)
(0.018801818 -1.9561114e-05 0)
(0.014123839 3.5203054e-05 0)
(0.014692465 -6.50716e-07 0)
(0.014284389 -1.4163964e-07 0)
(0.014547251 1.693912e-06 0)
(0.01425109 -6.971902e-07 0)
(0.014463403 1.201903e-06 0)
(0.014261622 -1.0437518e-06 0)
(0.014442616 1.050376e-06 0)
(0.014273608 -9.8405748e-07 0)
(0.014430857 9.4285155e-07 0)
(0.014282945 -8.848196e-07 0)
(0.014421573 8.3940897e-07 0)
(0.014291093 -7.8931585e-07 0)
(0.014413605 7.4606131e-07 0)
(0.014298419 -7.0287489e-07 0)
(0.014406585 6.6363519e-07 0)
(0.01430499 -6.2593527e-07 0)
(0.014400345 5.9096732e-07 0)
(0.014310869 -5.5786516e-07 0)
(0.014394781 5.2694527e-07 0)
(0.014316126 -4.9785497e-07 0)
(0.014389809 4.7063929e-07 0)
(0.01432083 -4.4511386e-07 0)
(0.014385358 4.2124742e-07 0)
(0.014325046 -3.9891256e-07 0)
(0.014381366 3.7806272e-07 0)
(0.014328832 -3.5859281e-07 0)
(0.014377775 3.4045884e-07 0)
(0.014332244 -3.2356792e-07 0)
(0.014374533 3.0788289e-07 0)
(0.01433533 -2.9332046e-07 0)
(0.014371593 2.7985049e-07 0)
(0.014338137 -2.6739889e-07 0)
(0.014368911 2.5594156e-07 0)
(0.014340705 -2.4541369e-07 0)
(0.014366448 2.3579607e-07 0)
(0.014343072 -2.2703328e-07 0)
(0.014364168 2.191096e-07 0)
(0.014345275 -2.1198012e-07 0)
(0.014362036 2.0562979e-07 0)
(0.014347345 -2.0002108e-07 0)
(0.01436002 1.9517245e-07 0)
(0.014349312 -1.909306e-07 0)
(0.014358083 1.8755534e-07 0)
(0.0143512 -1.8517452e-07 0)
(0.014356243 1.7964654e-07 0)
(0.014353357 -1.9328933e-07 0)
(0.014355803 1.7289249e-07 0)
(0.015578483 0.0031084257 0)
(0.025366038 -3.3272628e-05 0)
(0.019506908 6.2900634e-05 0)
(0.020247453 -1.075773e-06 0)
(0.019698723 1.3588274e-07 0)
(0.020067902 2.6168718e-06 0)
(0.019652746 -7.3088696e-07 0)
(0.019956185 1.728511e-06 0)
(0.019668869 -1.4651084e-06 0)
(0.019927876 1.5008494e-06 0)
(0.019686289 -1.4068702e-06 0)
(0.019911343 1.3538309e-06 0)
(0.019699692 -1.268986e-06 0)
(0.019898119 1.2060103e-06 0)
(0.019711376 -1.1330017e-06 0)
(0.019886726 1.0715727e-06 0)
(0.019721876 -1.0091569e-06 0)
(0.019876677 9.5298267e-07 0)
(0.019731289 -8.9872613e-07 0)
(0.019867743 8.4853214e-07 0)
(0.019739709 -8.0097528e-07 0)
(0.019859777 7.5655428e-07 0)
(0.019747236 -7.1479036e-07 0)
(0.019852659 6.7568333e-07 0)
(0.01975397 -6.3904809e-07 0)
(0.019846288 6.0475424e-07 0)
(0.019760004 -5.7270215e-07 0)
(0.019840574 5.4274476e-07 0)
(0.019765423 -5.1480513e-07 0)
(0.019835435 4.8875121e-07 0)
(0.019770305 -4.6451208e-07 0)
(0.019830795 4.4197692e-07 0)
(0.019774723 -4.2107803e-07 0)
(0.019826587 4.0172466e-07 0)
(0.019778739 -3.8385328e-07 0)
(0.019822749 3.673902e-07 0)
(0.019782415 -3.5227763e-07 0)
(0.019819223 3.3845582e-07 0)
(0.019785805 -3.2587416e-07 0)
(0.019815958 3.1448351e-07 0)
(0.019788959 -3.0424353e-07 0)
(0.019812905 2.951091e-07 0)
(0.019791925 -2.8704754e-07 0)
(0.019810017 2.8007267e-07 0)
(0.019794743 -2.7392896e-07 0)
(0.019807242 2.6914091e-07 0)
(0.019797449 -2.6563044e-07 0)
(0.019804582 2.5687314e-07 0)
(0.019800464 -2.8194765e-07 0)
(0.019803701 2.4739872e-07 0)
(0.018765466 0.0034763523 0)
(0.031519568 -7.947134e-05 0)
(0.024738465 9.7017129e-05 0)
(0.025651688 -1.46772e-06 0)
(0.024962336 6.2987645e-07 0)
(0.025438302 3.61306e-06 0)
(0.024904006 -5.9359053e-07 0)
(0.025302914 2.2082239e-06 0)
(0.024926902 -1.8330047e-06 0)
(0.025267423 1.9090964e-06 0)
(0.02495014 -1.7929894e-06 0)
(0.025246038 1.7325858e-06 0)
(0.024967811 -1.6222339e-06 0)
(0.02522873 1.5445033e-06 0)
(0.0249832 -1.4496294e-06 0)
(0.025213764 1.3719083e-06 0)
(0.024997022 -1.2914716e-06 0)
(0.025200551 1.2198164e-06 0)
(0.025009407 -1.1501943e-06 0)
(0.025188803 1.0859921e-06 0)
(0.025020481 -1.0250759e-06 0)
(0.025178328 9.6820893e-07 0)
(0.025030378 -9.14752e-07 0)
(0.02516897 8.6467779e-07 0)
(0.02503923 -8.1780003e-07 0)
(0.025160597 7.7388923e-07 0)
(0.025047161 -7.328815e-07 0)
(0.025153087 6.9452538e-07 0)
(0.025054283 -6.5878081e-07 0)
(0.025146334 6.25424e-07 0)
(0.025060698 -5.9441337e-07 0)
(0.025140237 5.6556195e-07 0)
(0.025066502 -5.3882337e-07 0)
(0.025134709 5.1404485e-07 0)
(0.025071779 -4.9117777e-07 0)
(0.025129666 4.7009823e-07 0)
(0.025076609 -4.5075869e-07 0)
(0.025125035 4.3305883e-07 0)
(0.025081062 -4.1695514e-07 0)
(0.025120745 4.0236533e-07 0)
(0.025085205 -3.8925544e-07 0)
(0.025116735 3.7754983e-07 0)
(0.0250891 -3.6722342e-07 0)
(0.025112942 3.582863e-07 0)
(0.025092803 -3.503599e-07 0)
(0.025109298 3.4432289e-07 0)
(0.025096357 -3.3968444e-07 0)
(0.025105784 3.2757677e-07 0)
(0.02510024 -3.6638442e-07 0)
(0.025104345 3.1576534e-07 0)
(0.023876346 0.0045580574 0)
(0.037294716 -8.8787383e-05 0)
(0.029783616 0.00013533467 0)
(0.030907108 -2.7000487e-06 0)
(0.03007434 1.3443621e-06 0)
(0.030658099 4.6770108e-06 0)
(0.030005179 -3.125262e-07 0)
(0.03050328 2.6384391e-06 0)
(0.030036131 -2.1524273e-06 0)
(0.030460916 2.276193e-06 0)
(0.030065502 -2.1448835e-06 0)
(0.030434634 2.080719e-06 0)
(0.0300876 -1.9463093e-06 0)
(0.030413128 1.8563363e-06 0)
(0.030106829 -1.7406452e-06 0)
(0.030394473 1.6483716e-06 0)
(0.03012409 -1.5510864e-06 0)
(0.03037799 1.4653124e-06 0)
(0.030139549 -1.3814687e-06 0)
(0.030363334 1.3044064e-06 0)
(0.030153366 -1.2311786e-06 0)
(0.030350267 1.1628627e-06 0)
(0.030165711 -1.0986486e-06 0)
(0.030338596 1.0384809e-06 0)
(0.030176752 -9.8218723e-07 0)
(0.030328154 9.2942549e-07 0)
(0.03018664 -8.8018722e-07 0)
(0.030318791 8.3410207e-07 0)
(0.030195519 -7.9118498e-07 0)
(0.030310372 7.51108e-07 0)
(0.030203516 -7.1387422e-07 0)
(0.030302773 6.792105e-07 0)
(0.03021075 -6.4710438e-07 0)
(0.030295883 6.173332e-07 0)
(0.030217327 -5.8987338e-07 0)
(0.030289598 5.6454474e-07 0)
(0.030223345 -5.4131811e-07 0)
(0.030283827 5.2004785e-07 0)
(0.030228893 -5.0070404e-07 0)
(0.030278483 4.8316746e-07 0)
(0.030234054 -4.6741581e-07 0)
(0.030273488 4.5333913e-07 0)
(0.030238906 -4.4092566e-07 0)
(0.030268764 4.3017795e-07 0)
(0.030243518 -4.2058215e-07 0)
(0.030264227 4.1344407e-07 0)
(0.030247943 -4.076557e-07 0)
(0.030259837 3.9216843e-07 0)
(0.0302527 -4.46367e-07 0)
(0.030257737 3.7786575e-07 0)
(0.026487025 0.004627311 0)
(0.042581104 -0.00016701383 0)
(0.034688861 0.00017607929 0)
(0.036012491 -4.2958086e-06 0)
(0.03503207 2.2216359e-06 0)
(0.035726845 5.7911227e-06 0)
(0.034956389 7.0914393e-08 0)
(0.035556842 3.0121561e-06 0)
(0.03499693 -2.430334e-06 0)
(0.035507979 2.6034475e-06 0)
(0.03503272 -2.4659361e-06 0)
(0.0354768 2.4004278e-06 0)
(0.035059367 -2.2436358e-06 0)
(0.035451024 2.1435544e-06 0)
(0.035082537 -2.0080765e-06 0)
(0.035428597 1.9028129e-06 0)
(0.035103322 -1.7897827e-06 0)
(0.035408768 1.6911359e-06 0)
(0.035121928 -1.5941352e-06 0)
(0.035391135 1.5052692e-06 0)
(0.035138552 -1.4207008e-06 0)
(0.035375416 1.341855e-06 0)
(0.035153402 -1.2677496e-06 0)
(0.03536138 1.198294e-06 0)
(0.035166679 -1.1333483e-06 0)
(0.035348823 1.072442e-06 0)
(0.03517857 -1.0156427e-06 0)
(0.035337566 9.6244578e-07 0)
(0.035189244 -9.1293982e-07 0)
(0.035327444 8.6667966e-07 0)
(0.035198858 -8.2372864e-07 0)
(0.03531831 7.83717e-07 0)
(0.035207552 -7.466789e-07 0)
(0.035310028 7.1231358e-07 0)
(0.035215457 -6.8063282e-07 0)
(0.035302475 6.5139365e-07 0)
(0.035222689 -6.2459362e-07 0)
(0.03529554 6.000366e-07 0)
(0.035229356 -5.7771297e-07 0)
(0.03528912 5.5746243e-07 0)
(0.035235556 -5.3927977e-07 0)
(0.035283119 5.230166e-07 0)
(0.035241383 -5.0868049e-07 0)
(0.035277446 4.9626086e-07 0)
(0.035246922 -4.8510259e-07 0)
(0.035272 4.7699707e-07 0)
(0.035252235 -4.7002241e-07 0)
(0.035266718 4.5121415e-07 0)
(0.035257869 -5.2186613e-07 0)
(0.035263872 4.3393547e-07 0)
(0.031645787 0.0056521125 0)
(0.047550343 -0.00017090412 0)
(0.03941653 0.00021571778 0)
(0.040955756 -5.0609022e-06 0)
(0.039837658 3.6685819e-06 0)
(0.040645287 6.9922211e-06 0)
(0.039758493 5.541602e-07 0)
(0.040463472 3.3271739e-06 0)
(0.039809754 -2.6673694e-06 0)
(0.040408328 2.8908655e-06 0)
(0.039852116 -2.7565708e-06 0)
(0.040372256 2.6918275e-06 0)
(0.039883387 -2.5143825e-06 0)
(0.040342162 2.4062069e-06 0)
(0.039910564 -2.2520139e-06 0)
(0.04031591 2.1352843e-06 0)
(0.039934931 -2.0076325e-06 0)
(0.040292685 1.8973471e-06 0)
(0.039956732 -1.7882599e-06 0)
(0.040272032 1.6886434e-06 0)
(0.039976205 -1.5937056e-06 0)
(0.040253622 1.5052479e-06 0)
(0.039993596 -1.4221152e-06 0)
(0.040237186 1.3441766e-06 0)
(0.040009142 -1.2713402e-06 0)
(0.040222484 1.2029945e-06 0)
(0.040023061 -1.1393011e-06 0)
(0.040209306 1.0796086e-06 0)
(0.040035556 -1.0240949e-06 0)
(0.040197458 9.7218736e-07 0)
(0.040046809 -9.2402287e-07 0)
(0.040186767 8.7912658e-07 0)
(0.040056985 -8.3759033e-07 0)
(0.040177074 7.9902853e-07 0)
(0.040066235 -7.6349733e-07 0)
(0.040168237 7.3068565e-07 0)
(0.040074697 -7.0062507e-07 0)
(0.040160122 6.7306475e-07 0)
(0.040082497 -6.4802124e-07 0)
(0.040152611 6.2528978e-07 0)
(0.04008975 -6.0488701e-07 0)
(0.040145592 5.8662273e-07 0)
(0.040096565 -5.7052933e-07 0)
(0.040138958 5.5657714e-07 0)
(0.040103042 -5.4396876e-07 0)
(0.040132593 5.3502591e-07 0)
(0.040109254 -5.2683468e-07 0)
(0.040126408 5.0483873e-07 0)
(0.040115763 -5.9252048e-07 0)
(0.040122747 4.8394173e-07 0)
(0.034343863 0.0056232571 0)
(0.051943524 -0.00027656501 0)
(0.044053823 0.00025048165 0)
(0.045687681 -5.8930944e-06 0)
(0.044482207 5.0048211e-06 0)
(0.045411795 8.1727247e-06 0)
(0.044411557 1.0909324e-06 0)
(0.0452228 3.5686585e-06 0)
(0.044474902 -2.8670588e-06 0)
(0.045161677 3.1365908e-06 0)
(0.044523957 -3.0169798e-06 0)
(0.045120751 2.9542382e-06 0)
(0.044559895 -2.7581964e-06 0)
(0.04508632 2.6437612e-06 0)
(0.044591121 -2.4720389e-06 0)
(0.045056214 2.3453447e-06 0)
(0.044619101 -2.2042477e-06 0)
(0.045029567 2.0835712e-06 0)
(0.044644124 -1.9634982e-06 0)
(0.04500587 1.8542042e-06 0)
(0.044666468 -1.7498895e-06 0)
(0.04498475 1.6527571e-06 0)
(0.044686418 -1.5614775e-06 0)
(0.044965896 1.4758777e-06 0)
(0.044704249 -1.3959255e-06 0)
(0.044949034 1.3208603e-06 0)
(0.044720213 -1.2509511e-06 0)
(0.044933921 1.1853915e-06 0)
(0.044734541 -1.1244611e-06 0)
(0.044920335 1.0674526e-06 0)
(0.044747444 -1.0145868e-06 0)
(0.044908076 9.6527839e-07 0)
(0.044759111 -9.1968519e-07 0)
(0.044896963 8.7733258e-07 0)
(0.044769717 -8.3832791e-07 0)
(0.04488683 8.022887e-07 0)
(0.044779418 -7.6928611e-07 0)
(0.044877529 7.3901199e-07 0)
(0.044788359 -7.1151355e-07 0)
(0.044868919 6.8653952e-07 0)
(0.044796671 -6.6413196e-07 0)
(0.044860875 6.4405681e-07 0)
(0.044804481 -6.2637562e-07 0)
(0.044853274 6.1103403e-07 0)
(0.044811901 -5.9709554e-07 0)
(0.044845985 5.8744343e-07 0)
(0.044819017 -5.7801813e-07 0)
(0.044838895 5.5302679e-07 0)
(0.044826398 -6.5789749e-07 0)
(0.044834359 5.2782992e-07 0)
(0.039571473 0.0064753281 0)
(0.056127981 -0.0002787905 0)
(0.048611629 0.00029480691 0)
(0.050186929 -8.6810707e-06 0)
(0.048959199 5.527675e-06 0)
(0.050025576 9.1921913e-06 0)
(0.048915888 1.6445472e-06 0)
(0.049834631 3.7285448e-06 0)
(0.048992692 -3.0306187e-06 0)
(0.049767798 3.3402517e-06 0)
(0.049048491 -3.2471499e-06 0)
(0.049722064 3.1874317e-06 0)
(0.049089106 -2.9748773e-06 0)
(0.049683299 2.8559479e-06 0)
(0.049124394 -2.6679332e-06 0)
(0.049649335 2.5327636e-06 0)
(0.049155997 -2.3794305e-06 0)
(0.04961926 2.2496163e-06 0)
(0.049184249 -2.1196765e-06 0)
(0.049592514 2.0017885e-06 0)
(0.049209468 -1.8891006e-06 0)
(0.04956868 1.7842413e-06 0)
(0.049231981 -1.6857032e-06 0)
(0.049547405 1.5932734e-06 0)
(0.049252099 -1.5069863e-06 0)
(0.049528381 1.4259293e-06 0)
(0.049270109 -1.3504876e-06 0)
(0.04951133 1.2796959e-06 0)
(0.049286273 -1.213944e-06 0)
(0.049496004 1.1523866e-06 0)
(0.049300828 -1.0953355e-06 0)
(0.049482175 1.0420921e-06 0)
(0.049313989 -9.9288654e-07 0)
(0.049469639 9.4715287e-07 0)
(0.049325952 -9.0505469e-07 0)
(0.049458211 8.6613649e-07 0)
(0.049336893 -8.3051313e-07 0)
(0.04944772 7.9781787e-07 0)
(0.049346976 -7.6813192e-07 0)
(0.049438012 7.4115649e-07 0)
(0.049356349 -7.1696169e-07 0)
(0.049428941 6.9526856e-07 0)
(0.049365154 -6.7617123e-07 0)
(0.049420373 6.5958549e-07 0)
(0.049373519 -6.4444244e-07 0)
(0.049412159 6.3420484e-07 0)
(0.049381539 -6.2354236e-07 0)
(0.049404166 5.9578973e-07 0)
(0.049389784 -7.1764638e-07 0)
(0.049398708 5.6563718e-07 0)
(0.042625293 0.0064880613 0)
(0.059774893 -0.00040031653 0)
(0.053029425 0.00032941909 0)
(0.05452598 -1.1036676e-05 0)
(0.053276319 5.2220568e-06 0)
(0.054488503 9.9904512e-06 0)
(0.053272455 2.1903599e-06 0)
(0.05429892 3.7970251e-06 0)
(0.053363442 -3.1603692e-06 0)
(0.054226489 3.5012983e-06 0)
(0.053425941 -3.4475689e-06 0)
(0.054175998 3.391366e-06 0)
(0.053471211 -3.1645288e-06 0)
(0.054132923 3.0427351e-06 0)
(0.053510551 -2.8397258e-06 0)
(0.054095116 2.6975359e-06 0)
(0.053545767 -2.5331987e-06 0)
(0.054061625 2.3954925e-06 0)
(0.053577236 -2.2568116e-06 0)
(0.054031843 2.1314123e-06 0)
(0.053605319 -2.0113561e-06 0)
(0.054005305 1.8997182e-06 0)
(0.053630384 -1.7948091e-06 0)
(0.053981619 1.6963807e-06 0)
(0.053652781 -1.6045382e-06 0)
(0.053960441 1.518217e-06 0)
(0.053672829 -1.4379243e-06 0)
(0.053941461 1.3625356e-06 0)
(0.053690821 -1.2925558e-06 0)
(0.053924401 1.2270012e-06 0)
(0.053707022 -1.1662794e-06 0)
(0.053909009 1.1095781e-06 0)
(0.05372167 -1.0572036e-06 0)
(0.053895056 1.0084985e-06 0)
(0.053734984 -9.6368606e-07 0)
(0.053882337 9.222374e-07 0)
(0.053747161 -8.8431402e-07 0)
(0.053870662 8.4949039e-07 0)
(0.053758381 -8.1788405e-07 0)
(0.053859859 7.8914868e-07 0)
(0.053768811 -7.6338416e-07 0)
(0.053849766 7.4026649e-07 0)
(0.053778606 -7.1992496e-07 0)
(0.053840235 7.022408e-07 0)
(0.053787911 -6.8602249e-07 0)
(0.053831102 6.7531727e-07 0)
(0.053796832 -6.6343e-07 0)
(0.053822211 6.3317915e-07 0)
(0.053805931 -7.7150473e-07 0)
(0.053815795 5.974834e-07 0)
(0.047547515 0.0070788413 0)
(0.063374948 -0.00039499508 0)
(0.057183457 0.00035886783 0)
(0.058771211 -1.206315e-05 0)
(0.057438284 4.358191e-06 0)
(0.058801834 1.0495325e-05 0)
(0.057481913 2.7198397e-06 0)
(0.058615559 3.7752553e-06 0)
(0.05758739 -3.2553335e-06 0)
(0.058537547 3.6206903e-06 0)
(0.057656496 -3.618457e-06 0)
(0.05848237 3.5663154e-06 0)
(0.05770638 -3.3273586e-06 0)
(0.058435031 3.2042643e-06 0)
(0.057749743 -2.9875823e-06 0)
(0.058393415 2.8397974e-06 0)
(0.057788544 -2.6656975e-06 0)
(0.05835654 2.5213319e-06 0)
(0.057823201 -2.3750339e-06 0)
(0.058323748 2.2431986e-06 0)
(0.057854123 -2.1167734e-06 0)
(0.05829453 1.9992995e-06 0)
(0.057881718 -1.8889006e-06 0)
(0.058268455 1.7852999e-06 0)
(0.057906373 -1.6886751e-06 0)
(0.058245142 1.5978129e-06 0)
(0.057928441 -1.5133452e-06 0)
(0.058224249 1.4339901e-06 0)
(0.057948245 -1.3603712e-06 0)
(0.058205471 1.2913674e-06 0)
(0.057966076 -1.2274853e-06 0)
(0.058188529 1.1678001e-06 0)
(0.057982199 -1.1126966e-06 0)
(0.058173172 1.0614271e-06 0)
(0.057996853 -1.0142766e-06 0)
(0.058159172 9.7064387e-07 0)
(0.058010254 -9.3073881e-07 0)
(0.058146323 8.9407792e-07 0)
(0.058022602 -8.608165e-07 0)
(0.058134434 8.3056138e-07 0)
(0.05803408 -8.0344332e-07 0)
(0.058123329 7.790939e-07 0)
(0.058044857 -7.5767926e-07 0)
(0.058112843 7.3904205e-07 0)
(0.058055094 -7.2188037e-07 0)
(0.0581028 7.108188e-07 0)
(0.058064908 -6.9773557e-07 0)
(0.058093021 6.6526905e-07 0)
(0.058074848 -8.1927716e-07 0)
(0.05808562 6.2354361e-07 0)
(0.050838219 0.0071254837 0)
(0.06648194 -0.00052405366 0)
(0.061125284 0.00038125367 0)
(0.062935386 -1.2023509e-05 0)
(0.0614481 3.5073643e-06 0)
(0.062966932 1.0771475e-05 0)
(0.061544889 3.2476026e-06 0)
(0.062784447 3.6702775e-06 0)
(0.061664746 -3.3134235e-06 0)
(0.062700791 3.6996554e-06 0)
(0.061740319 -3.7602252e-06 0)
(0.062641014 3.7125912e-06 0)
(0.061794761 -3.4637416e-06 0)
(0.062589479 3.3407607e-06 0)
(0.061842103 -3.1117888e-06 0)
(0.062544107 2.9597773e-06 0)
(0.061884443 -2.7771697e-06 0)
(0.062503893 2.6273532e-06 0)
(0.061922248 -2.4745573e-06 0)
(0.062468131 2.3373478e-06 0)
(0.061955971 -2.2055429e-06 0)
(0.06243627 2.0831654e-06 0)
(0.061986062 -1.9681471e-06 0)
(0.062407837 1.8601918e-06 0)
(0.062012944 -1.759548e-06 0)
(0.062382417 1.66486e-06 0)
(0.062037006 -1.5768845e-06 0)
(0.062359637 1.494187e-06 0)
(0.062058598 -1.4175099e-06 0)
(0.062339163 1.3455992e-06 0)
(0.062078039 -1.2790606e-06 0)
(0.062320691 1.2168602e-06 0)
(0.062095617 -1.1594622e-06 0)
(0.062303948 1.1060309e-06 0)
(0.062111594 -1.056914e-06 0)
(0.062288685 1.0114401e-06 0)
(0.062126204 -9.6986798e-07 0)
(0.062274677 9.3165796e-07 0)
(0.062139665 -8.9700374e-07 0)
(0.062261716 8.6546677e-07 0)
(0.062152176 -8.3720904e-07 0)
(0.062249611 8.1181906e-07 0)
(0.062163923 -7.8950075e-07 0)
(0.062238183 7.7005491e-07 0)
(0.062175079 -7.5208327e-07 0)
(0.062227241 7.407697e-07 0)
(0.062185775 -7.2653612e-07 0)
(0.062216589 6.9214843e-07 0)
(0.062196541 -8.6082417e-07 0)
(0.062208185 6.4403196e-07 0)
(0.055601918 0.0075193732 0)
(0.069645101 -0.00051825378 0)
(0.064886774 0.00040219779 0)
(0.066971121 -1.2975084e-05 0)
(0.065310777 2.8789403e-06 0)
(0.066983688 1.0718635e-05 0)
(0.065461726 3.7641114e-06 0)
(0.066805505 3.4820415e-06 0)
(0.06559575 -3.333439e-06 0)
(0.06671609 3.7397479e-06 0)
(0.065677578 -3.8731289e-06 0)
(0.066651793 3.8307692e-06 0)
(0.065736491 -3.5740755e-06 0)
(0.066596142 3.4525932e-06 0)
(0.065787748 -3.2127088e-06 0)
(0.066547082 3.0578064e-06 0)
(0.06583357 -2.8679391e-06 0)
(0.066503587 2.7138582e-06 0)
(0.065874469 -2.5556697e-06 0)
(0.066464908 2.4141311e-06 0)
(0.065910944 -2.2779207e-06 0)
(0.066430448 2.1515581e-06 0)
(0.065943487 -2.0327765e-06 0)
(0.066399698 1.9212722e-06 0)
(0.065972559 -1.8173596e-06 0)
(0.066372208 1.7195504e-06 0)
(0.065998578 -1.6287227e-06 0)
(0.066347574 1.5432973e-06 0)
(0.066021928 -1.4641332e-06 0)
(0.066325432 1.3898496e-06 0)
(0.066042952 -1.32115e-06 0)
(0.066305457 1.2568962e-06 0)
(0.066061961 -1.1976309e-06 0)
(0.06628735 1.1424347e-06 0)
(0.066079237 -1.0917171e-06 0)
(0.066270846 1.0447397e-06 0)
(0.066095036 -1.00181e-06 0)
(0.066255698 9.623349e-07 0)
(0.066109591 -9.2654608e-07 0)
(0.066241684 8.9396182e-07 0)
(0.066123118 -8.6477506e-07 0)
(0.066228596 8.3853332e-07 0)
(0.066135818 -8.1547832e-07 0)
(0.066216241 7.9536669e-07 0)
(0.066147878 -7.7671914e-07 0)
(0.066204417 7.6525071e-07 0)
(0.066159441 -7.4992885e-07 0)
(0.066192909 7.1392033e-07 0)
(0.066171015 -8.9605747e-07 0)
(0.066183491 6.5919227e-07 0)
(0.059192789 0.0075770669 0)
(0.07238298 -0.00064122206 0)
(0.068544687 0.00041068283 0)
(0.070829875 -1.4825244e-05 0)
(0.069032337 2.1516379e-06 0)
(0.070851919 1.0298223e-05 0)
(0.069232611 4.2338723e-06 0)
(0.07067865 3.198591e-06 0)
(0.06938061 -3.3194059e-06 0)
(0.070583342 3.7407175e-06 0)
(0.069468423 -3.9582659e-06 0)
(0.07051459 3.921235e-06 0)
(0.069531694 -3.6589745e-06 0)
(0.070454909 3.5401763e-06 0)
(0.069586786 -3.290818e-06 0)
(0.070402241 3.1342895e-06 0)
(0.069636016 -2.9384139e-06 0)
(0.070355536 2.7812196e-06 0)
(0.069679943 -2.61873e-06 0)
(0.070314001 2.4738841e-06 0)
(0.069719113 -2.3342246e-06 0)
(0.070276998 2.204777e-06 0)
(0.069754056 -2.0830708e-06 0)
(0.070243981 1.9688072e-06 0)
(0.06978527 -1.8623603e-06 0)
(0.070214464 1.7621212e-06 0)
(0.069813208 -1.6690831e-06 0)
(0.070188014 1.5815327e-06 0)
(0.069838278 -1.5004408e-06 0)
(0.07016424 1.4243082e-06 0)
(0.069860851 -1.3539327e-06 0)
(0.070142792 1.2880786e-06 0)
(0.06988126 -1.2273645e-06 0)
(0.070123351 1.1707927e-06 0)
(0.06989981 -1.1188326e-06 0)
(0.070105629 1.0706833e-06 0)
(0.069916772 -1.0266996e-06 0)
(0.070089366 9.8623812e-07 0)
(0.0699324 -9.4956783e-07 0)
(0.07007432 9.1616661e-07 0)
(0.069946923 -8.8625741e-07 0)
(0.07006027 8.593495e-07 0)
(0.069960556 -8.3572166e-07 0)
(0.070047007 8.1508499e-07 0)
(0.069973501 -7.9589524e-07 0)
(0.070034319 7.8436175e-07 0)
(0.069985914 -7.6802935e-07 0)
(0.070021975 7.3070137e-07 0)
(0.069998276 -9.2493592e-07 0)
(0.07001154 6.6929e-07 0)
(0.063815354 0.0077927543 0)
(0.075245453 -0.00062985964 0)
(0.072128575 0.00042061674 0)
(0.074484406 -1.7637843e-05 0)
(0.07261758 1.1095867e-06 0)
(0.074570968 9.5262977e-06 0)
(0.072857913 4.6533024e-06 0)
(0.07440381 2.820881e-06 0)
(0.073019508 -3.2706509e-06 0)
(0.074302455 3.7043529e-06 0)
(0.073112988 -4.0160315e-06 0)
(0.074229302 3.9847953e-06 0)
(0.073180478 -3.7189902e-06 0)
(0.074165686 3.60408e-06 0)
(0.073239309 -3.3466355e-06 0)
(0.074109498 3.1897247e-06 0)
(0.073291863 -2.9890619e-06 0)
(0.074059663 2.8298807e-06 0)
(0.073338743 -2.6641547e-06 0)
(0.074015344 2.5170008e-06 0)
(0.07338054 -2.3748248e-06 0)
(0.073975862 2.2431722e-06 0)
(0.073417824 -2.119359e-06 0)
(0.073940632 2.0031081e-06 0)
(0.073451128 -1.8948432e-06 0)
(0.073909139 1.7928493e-06 0)
(0.073480935 -1.6982269e-06 0)
(0.073880917 1.6091406e-06 0)
(0.073507684 -1.5266664e-06 0)
(0.073855551 1.4491969e-06 0)
(0.073531768 -1.3776188e-06 0)
(0.073832666 1.3106074e-06 0)
(0.073553545 -1.248853e-06 0)
(0.073811923 1.1912861e-06 0)
(0.073573336 -1.1384333e-06 0)
(0.073793014 1.0894362e-06 0)
(0.073591435 -1.0446947e-06 0)
(0.073775662 1.0035194e-06 0)
(0.073608109 -9.6621484e-07 0)
(0.073759609 9.3222192e-07 0)
(0.073623603 -9.0179212e-07 0)
(0.073744619 8.7439973e-07 0)
(0.073638146 -8.5035914e-07 0)
(0.073730471 8.2933557e-07 0)
(0.073651955 -8.0973616e-07 0)
(0.073716941 7.9822007e-07 0)
(0.073665198 -7.809695e-07 0)
(0.073703782 7.4262055e-07 0)
(0.073678328 -9.4746137e-07 0)
(0.073692334 6.7460514e-07 0)
(0.067629535 0.0078434957 0)
(0.077732487 -0.00074463391 0)
(0.075635269 0.00041904816 0)
(0.077956439 -2.0570144e-05 0)
(0.076067139 -7.1088007e-07 0)
(0.078140325 8.5237817e-06 0)
(0.076338272 5.01509e-06 0)
(0.077980704 2.3550007e-06 0)
(0.076512484 -3.1862769e-06 0)
(0.077873269 3.6324207e-06 0)
(0.076611341 -4.0470707e-06 0)
(0.077795812 4.0221388e-06 0)
(0.076682925 -3.7548797e-06 0)
(0.077728381 3.6448676e-06 0)
(0.076745395 -3.3807957e-06 0)
(0.077668777 3.2246488e-06 0)
(0.076801181 -3.0204261e-06 0)
(0.077615903 2.8603334e-06 0)
(0.076850931 -2.6924183e-06 0)
(0.077568878 2.5439228e-06 0)
(0.07689528 -2.4001399e-06 0)
(0.077526987 2.2671371e-06 0)
(0.076934839 -2.1420122e-06 0)
(0.077489608 2.024525e-06 0)
(0.076970174 -1.9151382e-06 0)
(0.077456192 1.8120469e-06 0)
(0.077001799 -1.7164486e-06 0)
(0.077426249 1.6264e-06 0)
(0.077030179 -1.5430737e-06 0)
(0.077399335 1.4647658e-06 0)
(0.077055733 -1.3924455e-06 0)
(0.077375053 1.3247081e-06 0)
(0.077078839 -1.2623107e-06 0)
(0.077353043 1.2041194e-06 0)
(0.077099838 -1.1507141e-06 0)
(0.077332981 1.1011849e-06 0)
(0.077119041 -1.0559738e-06 0)
(0.077314569 1.0143502e-06 0)
(0.077136732 -9.7665197e-07 0)
(0.077297537 9.4228683e-07 0)
(0.07715317 -9.1153288e-07 0)
(0.077281634 8.8383319e-07 0)
(0.0771686 -8.5953567e-07 0)
(0.077266624 8.3826027e-07 0)
(0.077183248 -8.1838181e-07 0)
(0.077252275 8.0695835e-07 0)
(0.0771973 -7.8889524e-07 0)
(0.077238326 7.4981804e-07 0)
(0.077211172 -9.6367448e-07 0)
(0.077225874 6.7542609e-07 0)
(0.072053091 0.0079037218 0)
(0.080410344 -0.00072761395 0)
(0.079018515 0.00041940291 0)
(0.081291471 -2.2655703e-05 0)
(0.07938792 -2.9842832e-06 0)
(0.081560635 7.4012129e-06 0)
(0.079675555 5.3464228e-06 0)
(0.081409321 1.8242274e-06 0)
(0.079859731 -3.0603372e-06 0)
(0.081295725 3.5292354e-06 0)
(0.079963583 -4.0509826e-06 0)
(0.081214039 4.034522e-06 0)
(0.080039115 -3.7672332e-06 0)
(0.081142919 3.6632786e-06 0)
(0.080105113 -3.3939368e-06 0)
(0.081080012 3.2396831e-06 0)
(0.080164031 -3.0330868e-06 0)
(0.081024196 2.8731261e-06 0)
(0.080216561 -2.7040368e-06 0)
(0.080974552 2.5551367e-06 0)
(0.080263382 -2.4106278e-06 0)
(0.080930328 2.2771038e-06 0)
(0.080305144 -2.1514372e-06 0)
(0.080890867 2.0334424e-06 0)
(0.080342446 -1.9236075e-06 0)
(0.080855591 1.8200568e-06 0)
(0.080375832 -1.7240718e-06 0)
(0.080823979 1.6336174e-06 0)
(0.080405793 -1.5499528e-06 0)
(0.080795565 1.4712905e-06 0)
(0.08043277 -1.3986739e-06 0)
(0.08076993 1.3306291e-06 0)
(0.080457163 -1.2679737e-06 0)
(0.080746693 1.2095179e-06 0)
(0.080479333 -1.1558898e-06 0)
(0.080725513 1.1061349e-06 0)
(0.080499606 -1.0607336e-06 0)
(0.080706075 1.0189195e-06 0)
(0.080518282 -9.8106082e-07 0)
(0.080688094 9.4653652e-07 0)
(0.080535636 -9.1564895e-07 0)
(0.080671304 8.8781411e-07 0)
(0.080551924 -8.6341071e-07 0)
(0.08065546 8.4201511e-07 0)
(0.080567387 -8.2198563e-07 0)
(0.080640318 8.1072296e-07 0)
(0.080582221 -7.9196471e-07 0)
(0.080625605 7.5244397e-07 0)
(0.080596813 -9.7365102e-07 0)
(0.080612164 6.7204454e-07 0)
(0.076023086 0.0079328505 0)
(0.082766301 -0.00082888783 0)
(0.082222469 0.00040578255 0)
(0.084523054 -2.3502534e-05 0)
(0.082583955 -5.370466e-06 0)
(0.084832124 6.3108988e-06 0)
(0.082871698 5.6570266e-06 0)
(0.084689542 1.2541803e-06 0)
(0.083061418 -2.8912937e-06 0)
(0.084569788 3.3977938e-06 0)
(0.083169812 -4.0280433e-06 0)
(0.084483919 4.0229713e-06 0)
(0.08324912 -3.7568454e-06 0)
(0.084409237 3.6600322e-06 0)
(0.083318526 -3.386789e-06 0)
(0.084343146 3.2354754e-06 0)
(0.083380467 -3.0276817e-06 0)
(0.084284492 2.8688427e-06 0)
(0.08343568 -2.6995695e-06 0)
(0.084232322 2.5511643e-06 0)
(0.083484887 -2.4067827e-06 0)
(0.084185846 2.2735372e-06 0)
(0.083528775 -2.1480728e-06 0)
(0.084144376 2.0302742e-06 0)
(0.083567976 -1.920642e-06 0)
(0.084107303 1.8172484e-06 0)
(0.083603062 -1.7214455e-06 0)
(0.084074081 1.6311236e-06 0)
(0.083634548 -1.5476167e-06 0)
(0.084044219 1.4690679e-06 0)
(0.0836629 -1.3965859e-06 0)
(0.084017277 1.3286386e-06 0)
(0.083688536 -1.2660972e-06 0)
(0.083992855 1.2077248e-06 0)
(0.083711836 -1.1541926e-06 0)
(0.083970594 1.1045084e-06 0)
(0.083733143 -1.0591868e-06 0)
(0.083950166 1.0174316e-06 0)
(0.083752771 -9.7963773e-07 0)
(0.083931268 9.4516037e-07 0)
(0.083771009 -9.1432328e-07 0)
(0.083913624 8.8651994e-07 0)
(0.083788126 -8.6215661e-07 0)
(0.083896973 8.4076862e-07 0)
(0.083804375 -8.2071292e-07 0)
(0.083881064 8.0967242e-07 0)
(0.083819966 -7.9034652e-07 0)
(0.083865616 7.506573e-07 0)
(0.08383525 -9.7749833e-07 0)
(0.083851204 6.6475133e-07 0)
(0.08019814 0.0078564121 0)
(0.085340232 -0.00080376469 0)
(0.08526796 0.00039539925 0)
(0.087643305 -2.4766294e-05 0)
(0.08564867 -7.9453889e-06 0)
(0.087952517 5.2081949e-06 0)
(0.085927057 5.8935394e-06 0)
(0.087820736 6.6028426e-07 0)
(0.086117463 -2.6857487e-06 0)
(0.087695342 3.2389226e-06 0)