/*--------------------------------*- C++ -*----------------------------------*\
| =========                 |                                                 |
| \\      /  F ield         | OpenFOAM: The Open Source CFD Toolbox           |
|  \\    /   O peration     | Version:  2312                                  |
|   \\  /    A nd           | Website:  www.openfoam.com                      |
|    \\/     M anipulation  |                                                 |
\*---------------------------------------------------------------------------*/
FoamFile
{
    version     2.0;
    format      ascii;
    arch        "LSB;label=32;scalar=64";
    class       volVectorField;
    location    "9";
    object      U_0;
}
// * * * * * * * * * * * * * * * * * * * * * * * * * * * * * * * * * * * * * //

dimensions      [0 1 -1 0 0 0 0];

internalField   nonuniform List<vector> 
4000
(
(0.0025538382 0.0005027695 0)
(0.0043050354 -1.0790711e-05 0)
(0.0028680126 -4.9906041e-07 0)
(0.0031121028 5.7930893e-08 0)
(0.0030044872 -2.0259539e-07 0)
(0.0030581528 1.8811525e-07 0)
(0.0029969783 -2.1407914e-07 0)
(0.0030398044 1.8297289e-07 0)
(0.0029992541 -1.7548228e-07 0)
(0.0030351502 1.639725e-07 0)
(0.0030015731 -1.5456568e-07 0)
(0.0030327002 1.4538272e-07 0)
(0.0030034105 -1.3718534e-07 0)
(0.003030839 1.2922769e-07 0)
(0.0030050135 -1.2193994e-07 0)
(0.0030292605 1.1497016e-07 0)
(0.0030064549 -1.0847546e-07 0)
(0.0030278733 1.0233406e-07 0)
(0.0030077489 -9.6572299e-08 0)
(0.0030266409 9.1154265e-08 0)
(0.0030089075 -8.6061448e-08 0)
(0.0030255416 8.12869e-08 0)
(0.003009944 -7.6799341e-08 0)
(0.0030245592 7.2601195e-08 0)
(0.0030108715 -6.8659237e-08 0)
(0.00302368 6.4978675e-08 0)
(0.0030117026 -6.152786e-08 0)
(0.0030228916 5.8312579e-08 0)
(0.0030124488 -5.5303863e-08 0)
(0.0030221829 5.250734e-08 0)
(0.0030131205 -4.9897026e-08 0)
(0.0030215439 4.7478138e-08 0)
(0.0030137274 -4.5227709e-08 0)
(0.0030209651 4.3150457e-08 0)
(0.0030142786 -4.1226356e-08 0)
(0.0030204381 3.9459597e-08 0)
(0.003014782 -3.7832988e-08 0)
(0.0030199551 3.6350174e-08 0)
(0.0030152452 -3.499669e-08 0)
(0.0030195089 3.377564e-08 0)
(0.003015675 -3.2675155e-08 0)
(0.003019093 3.1697977e-08 0)
(0.0030160778 -3.0834549e-08 0)
(0.003018701 3.0087125e-08 0)
(0.0030164588 -2.9452712e-08 0)
(0.0030183261 2.8916832e-08 0)
(0.0030168259 -2.852404e-08 0)
(0.003017988 2.8226936e-08 0)
(0.0030172954 -2.7691688e-08 0)
(0.0030180165 3.0080152e-08 0)
(0.0066924617 0.0013524007 0)
(0.011842482 -8.3052736e-07 0)
(0.0085731389 1.4416502e-05 0)
(0.0089809087 -5.2959e-07 0)
(0.0087198874 -1.8899735e-07 0)
(0.008877035 8.6355777e-07 0)
(0.0086991401 -4.8248882e-07 0)
(0.0088246819 6.5606973e-07 0)
(0.0087050374 -5.8491781e-07 0)
(0.0088117774 5.781739e-07 0)
(0.0087119799 -5.4195916e-07 0)
(0.0088047124 5.1704158e-07 0)
(0.0087174616 -4.8583433e-07 0)
(0.008799211 4.6009782e-07 0)
(0.0087222532 -4.3301761e-07 0)
(0.0087945086 4.0902609e-07 0)
(0.0087265651 -3.8547967e-07 0)
(0.0087903687 3.6387639e-07 0)
(0.0087304355 -3.4323612e-07 0)
(0.0087866897 3.2403554e-07 0)
(0.0087338997 -3.0588419e-07 0)
(0.0087834086 2.8892354e-07 0)
(0.008736998 -2.7296474e-07 0)
(0.0087804767 2.5804272e-07 0)
(0.0087397704 -2.4403925e-07 0)
(0.0087778526 2.30957e-07 0)
(0.0087422545 -2.1870558e-07 0)
(0.0087754991 2.0727909e-07 0)
(0.0087444853 -1.9660118e-07 0)
(0.0087733828 1.8666476e-07 0)
(0.0087464946 -1.7740305e-07 0)
(0.008771473 1.6880982e-07 0)
(0.0087483116 -1.6082642e-07 0)
(0.0087697417 1.5344788e-07 0)
(0.0087499631 -1.4662304e-07 0)
(0.0087681634 1.4034813e-07 0)
(0.0087514736 -1.3457906e-07 0)
(0.0087667148 1.2931308e-07 0)
(0.0087528654 -1.2451287e-07 0)
(0.0087653742 1.201763e-07 0)
(0.0087541593 -1.1627299e-07 0)
(0.008764122 1.1280075e-07 0)
(0.0087553745 -1.0973387e-07 0)
(0.0087629391 1.0708511e-07 0)
(0.0087565274 -1.0478647e-07 0)
(0.008761804 1.0292137e-07 0)
(0.0087576346 -1.0166566e-07 0)
(0.0087607403 9.8954552e-08 0)
(0.0087589421 -1.0441873e-07 0)
(0.0087606004 9.5424598e-08 0)
(0.011213196 0.0022784516 0)
(0.018782312 -1.5333449e-05 0)
(0.014117139 3.4718657e-05 0)
(0.014691881 -7.4441176e-07 0)
(0.014284361 -1.4585867e-07 0)
(0.014547118 1.6911814e-06 0)
(0.014251073 -6.9806206e-07 0)
(0.014463391 1.2019406e-06 0)
(0.014261615 -1.0441534e-06 0)
(0.014442628 1.0507443e-06 0)
(0.01427359 -9.8447638e-07 0)
(0.014430879 9.4327296e-07 0)
(0.014282922 -8.8521962e-07 0)
(0.014421597 8.3977864e-07 0)
(0.01429107 -7.8964311e-07 0)
(0.014413627 7.4634327e-07 0)
(0.014298399 -7.0310935e-07 0)
(0.014406602 6.6382357e-07 0)
(0.014304976 -6.2608065e-07 0)
(0.014400357 5.9107383e-07 0)
(0.01431086 -5.5793803e-07 0)
(0.014394788 5.2698957e-07 0)
(0.014316121 -4.9787616e-07 0)
(0.014389812 4.7064215e-07 0)
(0.014320829 -4.4510305e-07 0)
(0.014385359 4.212268e-07 0)
(0.014325046 -3.9888557e-07 0)
(0.014381365 3.780321e-07 0)
(0.014328834 -3.5856082e-07 0)
(0.014377773 3.4042716e-07 0)
(0.014332246 -3.2353779e-07 0)
(0.014374531 3.0785515e-07 0)
(0.014335332 -2.9329565e-07 0)
(0.014371591 2.7982886e-07 0)
(0.014338138 -2.673805e-07 0)
(0.01436891 2.5592632e-07 0)
(0.014340706 -2.4540139e-07 0)
(0.014366447 2.3578645e-07 0)
(0.014343073 -2.2702602e-07 0)
(0.014364167 2.191044e-07 0)
(0.014345275 -2.1197666e-07 0)
(0.014362035 2.0562779e-07 0)
(0.014347345 -2.0002026e-07 0)
(0.01436002 1.9517257e-07 0)
(0.014349312 -1.9093146e-07 0)
(0.014358083 1.8755677e-07 0)
(0.0143512 -1.8517636e-07 0)
(0.014356243 1.7964864e-07 0)
(0.014353357 -1.9329181e-07 0)
(0.014355803 1.7289471e-07 0)
(0.014818098 0.0028397123 0)
(0.025374696 -4.6687075e-05 0)
(0.019516836 6.3382019e-05 0)
(0.020246893 -9.2658918e-07 0)
(0.019698659 1.342638e-07 0)
(0.020067775 2.6196599e-06 0)
(0.019652716 -7.3231806e-07 0)
(0.019956177 1.7285451e-06 0)
(0.019668851 -1.4657847e-06 0)
(0.0199279 1.5014183e-06 0)
(0.019686259 -1.4075108e-06 0)
(0.019911378 1.3544589e-06 0)
(0.019699657 -1.2695707e-06 0)
(0.019898155 1.2065419e-06 0)
(0.019711343 -1.1334647e-06 0)
(0.019886757 1.0719655e-06 0)
(0.019721849 -1.0094781e-06 0)
(0.0198767 9.5323597e-07 0)
(0.019731271 -8.9891726e-07 0)
(0.019867758 8.4866791e-07 0)
(0.019739698 -8.0106397e-07 0)
(0.019859785 7.5660356e-07 0)
(0.019747231 -7.1480835e-07 0)
(0.019852662 6.7567697e-07 0)
(0.019753969 -6.3902404e-07 0)
(0.019846288 6.0471791e-07 0)
(0.019760005 -5.7265834e-07 0)
(0.019840572 5.4269717e-07 0)
(0.019765425 -5.1475679e-07 0)
(0.019835432 4.8870431e-07 0)
(0.019770308 -4.6446821e-07 0)
(0.019830792 4.4193711e-07 0)
(0.019774725 -4.2104286e-07 0)
(0.019826585 4.0169437e-07 0)
(0.019778741 -3.8382783e-07 0)
(0.019822747 3.6736936e-07 0)
(0.019782417 -3.5226102e-07 0)
(0.019819222 3.3844303e-07 0)
(0.019785806 -3.258647e-07 0)
(0.019815957 3.1447691e-07 0)
(0.01978896 -3.0423933e-07 0)
(0.019812904 2.9510688e-07 0)
(0.019791925 -2.870469e-07 0)
(0.019810017 2.8007329e-07 0)
(0.019794743 -2.7393055e-07 0)
(0.019807242 2.6914323e-07 0)
(0.019797449 -2.6563329e-07 0)
(0.019804582 2.5687631e-07 0)
(0.019800464 -2.819514e-07 0)
(0.019803701 2.4740196e-07 0)
(0.019801568 0.0038851906 0)
(0.031530345 -6.0309851e-05 0)
(0.024728065 9.6704964e-05 0)
(0.025650564 -1.6230266e-06 0)
(0.024962247 6.1601147e-07 0)
(0.025438113 3.6074938e-06 0)
(0.024903955 -5.9623816e-07 0)
(0.025302918 2.2081882e-06 0)
(0.024926869 -1.8339876e-06 0)
(0.025267461 1.9098741e-06 0)
(0.024950095 -1.7938524e-06 0)
(0.025246087 1.7334118e-06 0)
(0.024967763 -1.6229888e-06 0)
(0.025228777 1.5451781e-06 0)
(0.024983157 -1.4502074e-06 0)
(0.025213802 1.3723906e-06 0)
(0.024996989 -1.2918588e-06 0)
(0.025200578 1.2201153e-06 0)
(0.025009385 -1.1504139e-06 0)
(0.02518882 1.0861422e-06 0)
(0.025020468 -1.0251679e-06 0)
(0.025178336 9.6825307e-07 0)
(0.025030373 -9.1475888e-07 0)
(0.025168973 8.6465633e-07 0)
(0.02503923 -8.1775859e-07 0)
(0.025160596 7.7383457e-07 0)
(0.025047163 -7.3281942e-07 0)
(0.025153084 6.9446038e-07 0)
(0.025054286 -6.5871639e-07 0)
(0.02514633 6.253627e-07 0)
(0.025060702 -5.9435693e-07 0)
(0.025140234 5.6551143e-07 0)
(0.025066505 -5.387793e-07 0)
(0.025134706 5.1400735e-07 0)
(0.025071782 -4.9114664e-07 0)
(0.025129664 4.7007306e-07 0)
(0.025076611 -4.5073893e-07 0)
(0.025125033 4.3304387e-07 0)
(0.025081063 -4.1694433e-07 0)
(0.025120745 4.0235803e-07 0)
(0.025085205 -3.8925105e-07 0)
(0.025116734 3.7754781e-07 0)
(0.0250891 -3.6722329e-07 0)
(0.025112942 3.5828764e-07 0)
(0.025092803 -3.5036236e-07 0)
(0.025109297 3.4432618e-07 0)
(0.025096357 -3.3968833e-07 0)
(0.025105784 3.27581e-07 0)
(0.02510024 -3.6638943e-07 0)
(0.025104345 3.1576952e-07 0)
(0.022616482 0.0040562742 0)
(0.03726301 -0.00012187243 0)
(0.029796023 0.0001352653 0)
(0.030906782 -2.4952452e-06 0)
(0.030074265 1.3381269e-06 0)
(0.030657967 4.6813845e-06 0)
(0.030005108 -3.1590757e-07 0)
(0.030503299 2.6383707e-06 0)
(0.030036079 -2.1537384e-06 0)
(0.030460972 2.2771682e-06 0)
(0.030065441 -2.1459585e-06 0)
(0.030434697 2.0817229e-06 0)
(0.030087539 -1.9472115e-06 0)
(0.030413186 1.8571296e-06 0)
(0.030106777 -1.7413136e-06 0)
(0.030394519 1.64892e-06 0)
(0.030124051 -1.5515184e-06 0)
(0.030378022 1.4656382e-06 0)
(0.030139524 -1.3817009e-06 0)
(0.030363352 1.3045577e-06 0)
(0.030153353 -1.2312634e-06 0)
(0.030350275 1.1628937e-06 0)
(0.030165707 -1.0986386e-06 0)
(0.030338598 1.0384404e-06 0)
(0.030176752 -9.8212605e-07 0)
(0.030328152 9.293514e-07 0)
(0.030186644 -8.8010677e-07 0)
(0.030318787 8.3402026e-07 0)
(0.030195523 -7.9110561e-07 0)
(0.030310367 7.5103374e-07 0)
(0.030203521 -7.1380682e-07 0)
(0.030302769 6.7915095e-07 0)
(0.030210754 -6.4705305e-07 0)
(0.030295879 6.1729004e-07 0)
(0.03021733 -5.8983798e-07 0)
(0.030289596 5.645165e-07 0)
(0.030223347 -5.4129628e-07 0)
(0.030283826 5.2003162e-07 0)
(0.030228894 -5.006926e-07 0)
(0.030278482 4.8316003e-07 0)
(0.030234055 -4.6741168e-07 0)
(0.030273487 4.5333764e-07 0)
(0.030238906 -4.4092626e-07 0)
(0.030268764 4.3018014e-07 0)
(0.030243518 -4.2058556e-07 0)
(0.030264227 4.1344835e-07 0)
(0.030247943 -4.076606e-07 0)
(0.030259837 3.9217366e-07 0)
(0.0302527 -4.4637321e-07 0)
(0.030257737 3.7787073e-07 0)
(0.027826594 0.0051587278 0)
(0.042643951 -0.00012769469 0)
(0.034678369 0.00017667898 0)
(0.036011154 -4.4854464e-06 0)
(0.035031956 2.1967565e-06 0)
(0.03572664 5.7827458e-06 0)
(0.034956289 6.5906906e-08 0)
(0.03555688 3.0119439e-06 0)
(0.034996858 -2.4319653e-06 0)
(0.035508052 2.6046038e-06 0)
(0.035032642 -2.4672015e-06 0)
(0.035476877 2.4015837e-06 0)
(0.035059294 -2.2446585e-06 0)
(0.035451091 2.1444395e-06 0)
(0.035082478 -2.00881e-06 0)
(0.035428648 1.9034045e-06 0)
(0.03510328 -1.7902394e-06 0)
(0.035408802 1.6914716e-06 0)
(0.035121902 -1.5943658e-06 0)
(0.035391154 1.5054106e-06 0)
(0.03513854 -1.42077e-06 0)
(0.035375424 1.3418667e-06 0)
(0.035153399 -1.2677185e-06 0)
(0.03536138 1.1982321e-06 0)
(0.035166682 -1.1332663e-06 0)
(0.035348819 1.0723484e-06 0)
(0.035178575 -1.0155446e-06 0)
(0.03533756 9.6234844e-07 0)
(0.03518925 -9.1284709e-07 0)
(0.035327438 8.6659422e-07 0)
(0.035198863 -8.2365209e-07 0)
(0.035318305 7.8365019e-07 0)
(0.035207557 -7.4662197e-07 0)
(0.035310024 7.1226627e-07 0)
(0.03521546 -6.8059448e-07 0)
(0.035302473 6.5136347e-07 0)
(0.035222691 -6.2457066e-07 0)
(0.035295539 6.0001987e-07 0)
(0.035229357 -5.7770152e-07 0)
(0.035289119 5.5745534e-07 0)
(0.035235557 -5.3927623e-07 0)
(0.035283118 5.2301586e-07 0)
(0.035241383 -5.0868195e-07 0)
(0.035277446 4.9626398e-07 0)
(0.035246922 -4.8510694e-07 0)
(0.035272 4.7700231e-07 0)
(0.035252235 -4.7002826e-07 0)
(0.035266718 4.512203e-07 0)
(0.035257869 -5.2187344e-07 0)
(0.035263872 4.3394112e-07 0)
(0.030392297 0.0051543329 0)
(0.047476545 -0.00022097973 0)
(0.039427573 0.00021486441 0)
(0.04095603 -4.8015595e-06 0)
(0.03983757 3.6636467e-06 0)
(0.040645182 6.9990912e-06 0)
(0.03975837 5.4848072e-07 0)
(0.040463531 3.3268966e-06 0)
(0.039809661 -2.6693105e-06 0)
(0.040408419 2.8921721e-06 0)
(0.039852023 -2.7580008e-06 0)
(0.040372346 2.6931036e-06 0)
(0.039883303 -2.5154964e-06 0)
(0.040342237 2.4071554e-06 0)
(0.039910499 -2.2527874e-06 0)
(0.040315964 2.1358972e-06 0)
(0.039934886 -2.0080953e-06 0)
(0.040292719 1.8976775e-06 0)
(0.039956707 -1.7884771e-06 0)
(0.04027205 1.6887658e-06 0)
(0.039976194 -1.5937528e-06 0)
(0.040253628 1.5052362e-06 0)
(0.039993594 -1.4220607e-06 0)
(0.040237184 1.3440922e-06 0)
(0.040009146 -1.2712375e-06 0)
(0.040222479 1.2028824e-06 0)
(0.040023068 -1.1391869e-06 0)
(0.040209299 1.0794975e-06 0)
(0.040035563 -1.0239908e-06 0)
(0.040197452 9.7209277e-07 0)
(0.040046815 -9.2393913e-07 0)
(0.040186761 8.7905433e-07 0)
(0.04005699 -8.3752944e-07 0)
(0.04017707 7.989785e-07 0)
(0.040066239 -7.6345729e-07 0)
(0.040168234 7.3065457e-07 0)
(0.0400747 -7.0060182e-07 0)
(0.040160121 6.7304818e-07 0)
(0.040082498 -6.4801028e-07 0)
(0.04015261 6.2528339e-07 0)
(0.040089751 -6.0488431e-07 0)
(0.040145591 5.8662292e-07 0)
(0.040096566 -5.7053174e-07 0)
(0.040138958 5.565812e-07 0)
(0.040103042 -5.4397404e-07 0)
(0.040132593 5.3503204e-07 0)
(0.040109254 -5.2684139e-07 0)
(0.040126408 5.0484571e-07 0)
(0.040115763 -5.9252877e-07 0)
(0.040122747 4.8394792e-07 0)
(0.035537895 0.0060756545 0)
(0.05203519 -0.00022297009 0)
(0.044044413 0.00025195014 0)
(0.04568638 -5.97925e-06 0)
(0.044481969 4.9769203e-06 0)
(0.045411601 8.1618e-06 0)
(0.0444114 1.0832144e-06 0)
(0.045222881 3.5681114e-06 0)
(0.044474789 -2.8692766e-06 0)
(0.045161784 3.1380159e-06 0)
(0.04452385 -3.0185392e-06 0)
(0.045120852 2.955601e-06 0)
(0.044559803 -2.7593703e-06 0)
(0.045086401 2.6447454e-06 0)
(0.044591052 -2.4728282e-06 0)
(0.045056271 2.3459586e-06 0)
(0.044619055 -2.2047002e-06 0)
(0.045029601 2.0838835e-06 0)
(0.044644099 -1.9636925e-06 0)
(0.045005887 1.854301e-06 0)
(0.044666458 -1.7499102e-06 0)
(0.044984754 1.6527196e-06 0)
(0.044686418 -1.5613987e-06 0)
(0.044965892 1.4757714e-06 0)
(0.044704255 -1.3958033e-06 0)
(0.044949027 1.3207316e-06 0)
(0.044720221 -1.2508228e-06 0)
(0.044933913 1.185269e-06 0)
(0.044734549 -1.1243479e-06 0)
(0.044920327 1.067351e-06 0)
(0.044747451 -1.0144979e-06 0)
(0.04490807 9.6520251e-07 0)
(0.044759117 -9.1962192e-07 0)
(0.044896958 8.7728118e-07 0)
(0.044769721 -8.3828727e-07 0)
(0.044886827 8.022576e-07 0)
(0.04477942 -7.6926326e-07 0)
(0.044877527 7.3899611e-07 0)
(0.04478836 -7.1150347e-07 0)
(0.044868918 6.8653411e-07 0)
(0.044796672 -6.6413028e-07 0)
(0.044860874 6.44058e-07 0)
(0.044804481 -6.26379e-07 0)
(0.044853274 6.1103901e-07 0)
(0.044811901 -5.9710168e-07 0)
(0.044845985 5.8745036e-07 0)
(0.044819017 -5.7802558e-07 0)
(0.044838895 5.5303446e-07 0)
(0.044826398 -6.5790663e-07 0)
(0.044834359 5.2783651e-07 0)
(0.03846618 0.0060825337 0)
(0.056017693 -0.00034041009 0)
(0.048619884 0.00029268627 0)
(0.050186361 -8.6681757e-06 0)
(0.048958963 5.4965778e-06 0)
(0.050025526 9.1993715e-06 0)
(0.048915715 1.6361981e-06 0)
(0.049834733 3.7278657e-06 0)
(0.04899256 -3.0330836e-06 0)
(0.04976792 3.3417482e-06 0)
(0.049048371 -3.2488056e-06 0)
(0.049722174 3.1888451e-06 0)
(0.049089008 -2.9760813e-06 0)
(0.049683385 2.8569411e-06 0)
(0.049124322 -2.6687165e-06 0)
(0.049649393 2.5333608e-06 0)
(0.049155952 -2.3798589e-06 0)
(0.049619293 2.2499004e-06 0)
(0.049184225 -2.1198407e-06 0)
(0.049592529 2.0018552e-06 0)
(0.04920946 -1.8890926e-06 0)
(0.049568682 1.7841773e-06 0)
(0.049231983 -1.6856008e-06 0)
(0.0495474 1.5931465e-06 0)
(0.049252107 -1.5068468e-06 0)
(0.049528372 1.4257863e-06 0)
(0.049270119 -1.3503478e-06 0)
(0.049511321 1.2795646e-06 0)
(0.049286282 -1.2138242e-06 0)
(0.049495995 1.1522803e-06 0)
(0.049300836 -1.0952434e-06 0)
(0.049482168 1.0420143e-06 0)
(0.049313995 -9.9282233e-07 0)
(0.049469634 9.4710128e-07 0)
(0.049325956 -9.0501441e-07 0)
(0.049458208 8.6610612e-07 0)
(0.049336896 -8.3049125e-07 0)
(0.049447718 7.978031e-07 0)
(0.049346977 -7.6812298e-07 0)
(0.049438011 7.4115222e-07 0)
(0.04935635 -7.169611e-07 0)
(0.049428941 6.9527077e-07 0)
(0.049365154 -6.7617555e-07 0)
(0.049420373 6.5959132e-07 0)
(0.049373519 -6.4444935e-07 0)
(0.04941216 6.3421246e-07 0)
(0.049381539 -6.2355045e-07 0)
(0.049404166 5.9579797e-07 0)
(0.049389784 -7.1765623e-07 0)
(0.049398708 5.6564404e-07 0)
(0.043588093 0.0068130685 0)
(0.059889421 -0.00033900649 0)
(0.053022767 0.00033215547 0)
(0.054525251 -1.1011251e-05 0)
(0.053276037 5.2061911e-06 0)
(0.054488357 9.9773791e-06 0)
(0.053272253 2.1799341e-06 0)
(0.054299043 3.7959413e-06 0)
(0.053363295 -3.1630348e-06 0)
(0.054226623 3.5028273e-06 0)
(0.053425812 -3.4492815e-06 0)
(0.054176114 3.3927968e-06 0)
(0.053471109 -3.1657344e-06 0)
(0.054133011 3.0437141e-06 0)
(0.053510479 -2.8404844e-06 0)
(0.054095173 2.6981022e-06 0)
(0.053545723 -2.5335927e-06 0)
(0.054061657 2.3957413e-06 0)
(0.053577214 -2.2569414e-06 0)
(0.054031856 2.1314468e-06 0)
(0.053605313 -2.011319e-06 0)
(0.054005305 1.8996286e-06 0)
(0.053630389 -1.7946849e-06 0)
(0.053981612 1.6962357e-06 0)
(0.05365279 -1.604384e-06 0)
(0.053960431 1.5180625e-06 0)
(0.05367284 -1.4377759e-06 0)
(0.053941451 1.362398e-06 0)
(0.053690831 -1.2924317e-06 0)
(0.053924392 1.2268922e-06 0)
(0.05370703 -1.1661859e-06 0)
(0.053909002 1.1095e-06 0)
(0.053721676 -1.0571398e-06 0)
(0.053895051 1.0084478e-06 0)
(0.053734988 -9.6364691e-07 0)
(0.053882334 9.2220835e-07 0)
(0.053747163 -8.8429352e-07 0)
(0.05387066 8.4947699e-07 0)
(0.053758382 -8.1787643e-07 0)
(0.053859858 7.8914563e-07 0)
(0.053768811 -7.6338468e-07 0)
(0.053849766 7.4026969e-07 0)
(0.053778606 -7.1993015e-07 0)
(0.053840235 7.0224738e-07 0)
(0.053787911 -6.8603006e-07 0)
(0.053831102 6.7532546e-07 0)
(0.053796832 -6.6343858e-07 0)
(0.053822211 6.3318783e-07 0)
(0.053805931 -7.7151513e-07 0)
(0.053815795 5.9749041e-07 0)
(0.046722681 0.0068244473 0)
(0.063256139 -0.00046080264 0)
(0.057188681 0.00035620622 0)
(0.058772133 -1.1927021e-05 0)
(0.0574379 4.3189495e-06 0)
(0.058801859 1.0501641e-05 0)
(0.057481711 2.708913e-06 0)
(0.058615701 3.7740489e-06 0)
(0.057587228 -3.2581418e-06 0)
(0.058537691 3.6222039e-06 0)
(0.05765636 -3.6201952e-06 0)
(0.05848249 3.5677316e-06 0)
(0.057706275 -3.3285418e-06 0)
(0.058435119 3.2052093e-06 0)
(0.057749672 -2.9883013e-06 0)
(0.058393471 2.840322e-06 0)
(0.057788502 -2.6660497e-06 0)
(0.058356569 2.5215411e-06 0)
(0.057823182 -2.3751273e-06 0)
(0.058323758 2.2432009e-06 0)
(0.05785412 -2.1167084e-06 0)
(0.058294528 1.9991866e-06 0)
(0.057881724 -1.8887573e-06 0)
(0.058268446 1.7851399e-06 0)
(0.057906383 -1.6885094e-06 0)
(0.05824513 1.59765e-06 0)
(0.057928452 -1.513191e-06 0)
(0.058224238 1.4338488e-06 0)
(0.057948255 -1.3602451e-06 0)
(0.058205462 1.2912578e-06 0)
(0.057966085 -1.2273921e-06 0)
(0.058188522 1.1677229e-06 0)
(0.057982205 -1.1126341e-06 0)
(0.058173167 1.0613779e-06 0)
(0.057996857 -1.0142392e-06 0)
(0.058159169 9.7061656e-07 0)
(0.058010257 -9.3071998e-07 0)
(0.058146322 8.9406606e-07 0)
(0.058022604 -8.6081027e-07 0)
(0.058134434 8.3055956e-07 0)
(0.05803408 -8.0344491e-07 0)
(0.058123329 7.79098e-07 0)
(0.058044857 -7.5768522e-07 0)
(0.058112843 7.3904928e-07 0)
(0.058055093 -7.2188846e-07 0)
(0.0581028 7.1082743e-07 0)
(0.058064907 -6.9774453e-07 0)
(0.058093021 6.6527804e-07 0)
(0.058074848 -8.1928797e-07 0)
(0.05808562 6.2355066e-07 0)
(0.051572517 0.007327938 0)
(0.066607253 -0.00046032976 0)
(0.061121203 0.00038420739 0)
(0.062935158 -1.2092196e-05 0)
(0.061447862 3.4955516e-06 0)
(0.062966886 1.0756052e-05 0)
(0.06154467 3.2351098e-06 0)
(0.062784603 3.6687094e-06 0)
(0.061664575 -3.3163106e-06 0)
(0.062700941 3.7011214e-06 0)
(0.06174018 -3.7619544e-06 0)
(0.062641136 3.713966e-06 0)
(0.061794656 -3.464882e-06 0)
(0.062589566 3.3416559e-06 0)
(0.061842033 -3.1124571e-06 0)
(0.062544161 2.960253e-06 0)
(0.061884404 -2.777476e-06 0)
(0.06250392 2.6275213e-06 0)
(0.061922232 -2.4746146e-06 0)
(0.062468139 2.3373195e-06 0)
(0.061955971 -2.2054526e-06 0)
(0.062436265 2.0830323e-06 0)
(0.06198607 -1.9679882e-06 0)
(0.062407826 1.8600202e-06 0)
(0.062012956 -1.7593742e-06 0)
(0.062382404 1.6646919e-06 0)
(0.062037018 -1.5767272e-06 0)
(0.062359626 1.4940445e-06 0)
(0.062058608 -1.4173838e-06 0)
(0.062339153 1.3454906e-06 0)
(0.062078047 -1.2789691e-06 0)
(0.062320684 1.216785e-06 0)
(0.062095623 -1.1594019e-06 0)
(0.062303943 1.105984e-06 0)
(0.062111597 -1.0568788e-06 0)
(0.062288682 1.0114148e-06 0)
(0.062126206 -9.6985097e-07 0)
(0.062274675 9.3164771e-07 0)
(0.062139666 -8.969989e-07 0)
(0.062261716 8.6546612e-07 0)
(0.062152176 -8.3721161e-07 0)
(0.062249611 8.1182397e-07 0)
(0.062163923 -7.8950736e-07 0)
(0.062238183 7.7006265e-07 0)
(0.062175078 -7.5209177e-07 0)
(0.062227242 7.4077865e-07 0)
(0.062185774 -7.2654532e-07 0)
(0.06221659 6.9215761e-07 0)
(0.06219654 -8.6083526e-07 0)
(0.062208185 6.4403898e-07 0)
(0.054988936 0.007368993 0)
(0.069518345 -0.00058504972 0)
(0.064888539 0.00039909872 0)
(0.066972439 -1.2866409e-05 0)
(0.065310406 2.8453181e-06 0)
(0.06698381 1.0724591e-05 0)
(0.06546152 3.7516115e-06 0)
(0.066805676 3.4804945e-06 0)
(0.065595572 -3.3363412e-06 0)
(0.066716245 3.7411268e-06 0)
(0.065677437 -3.8748245e-06 0)
(0.066651916 3.8320801e-06 0)
(0.065736387 -3.5751577e-06 0)
(0.066596227 3.4534275e-06 0)
(0.065787682 -3.2133195e-06 0)
(0.066547133 3.0582294e-06 0)
(0.065833533 -2.8681982e-06 0)
(0.066503611 2.7139859e-06 0)
(0.065874455 -2.555693e-06 0)
(0.066464913 2.4140753e-06 0)
(0.065910946 -2.2778088e-06 0)
(0.066430442 2.1514088e-06 0)
(0.065943497 -2.0326058e-06 0)
(0.066399686 1.9210927e-06 0)
(0.065972572 -1.8171809e-06 0)
(0.066372195 1.71938e-06 0)
(0.065998591 -1.628565e-06 0)
(0.066347562 1.5431558e-06 0)
(0.066021939 -1.464009e-06 0)
(0.066325423 1.3897435e-06 0)
(0.06604296 -1.3210612e-06 0)
(0.066305449 1.2568239e-06 0)
(0.066061967 -1.1975734e-06 0)
(0.066287346 1.1423904e-06 0)
(0.06607924 -1.0916842e-06 0)
(0.066270843 1.0447165e-06 0)
(0.066095038 -1.0017949e-06 0)
(0.066255697 9.6232623e-07 0)
(0.066109592 -9.2654256e-07 0)
(0.066241683 8.9396225e-07 0)
(0.066123119 -8.6477848e-07 0)
(0.066228596 8.385389e-07 0)
(0.066135818 -8.1548544e-07 0)
(0.066216241 7.9537481e-07 0)
(0.066147878 -7.7672792e-07 0)
(0.066204418 7.6525985e-07 0)
(0.066159441 -7.4993818e-07 0)
(0.066192909 7.139296e-07 0)
(0.066171015 -8.960687e-07 0)
(0.066183491 6.5919917e-07 0)
(0.059712979 0.0076844823 0)
(0.072514167 -0.00057749184 0)
(0.068542841 0.00041408906 0)
(0.070829834 -1.4845148e-05 0)
(0.06903211 2.1528574e-06 0)
(0.070851959 1.0281149e-05 0)
(0.069232399 4.220113e-06 0)
(0.070678828 3.1966634e-06 0)
(0.069380428 -3.3222972e-06 0)
(0.070583498 3.741988e-06 0)
(0.069468282 -3.9598998e-06 0)
(0.070514711 3.9224667e-06 0)
(0.069531593 -3.6599873e-06 0)
(0.070454991 3.5409427e-06 0)
(0.069586722 -3.2913677e-06 0)
(0.070402288 3.134659e-06 0)
(0.069635983 -2.938627e-06 0)
(0.070355556 2.7813095e-06 0)
(0.069679933 -2.6187228e-06 0)
(0.070314003 2.4738048e-06 0)
(0.069719116 -2.3340952e-06 0)
(0.07027699 2.2046155e-06 0)
(0.069754067 -2.0828921e-06 0)
(0.070243968 1.9686233e-06 0)
(0.069785284 -1.86218e-06 0)
(0.07021445 1.7619511e-06 0)
(0.069813221 -1.6689272e-06 0)
(0.070188001 1.581394e-06 0)
(0.069838289 -1.5003199e-06 0)
(0.07016423 1.4242057e-06 0)
(0.069860859 -1.3538475e-06 0)
(0.070142784 1.2880098e-06 0)
(0.069881266 -1.2273102e-06 0)
(0.070123346 1.1707514e-06 0)
(0.069899813 -1.1188023e-06 0)
(0.070105627 1.0706623e-06 0)
(0.069916774 -1.0266863e-06 0)
(0.070089365 9.8623095e-07 0)
(0.069932401 -9.4956551e-07 0)
(0.07007432 9.1616799e-07 0)
(0.069946923 -8.8626157e-07 0)
(0.07006027 8.5935562e-07 0)
(0.069960555 -8.3572916e-07 0)
(0.070047007 8.1509337e-07 0)
(0.0699735 -7.9590418e-07 0)
(0.07003432 7.8437098e-07 0)
(0.069985914 -7.6803871e-07 0)
(0.070021975 7.3071062e-07 0)
(0.069998276 -9.2494719e-07 0)
(0.07001154 6.6929673e-07 0)
(0.063401436 0.0077282009 0)
(0.075114817 -0.00069551263 0)
(0.072127726 0.00041718054 0)
(0.07448525 -1.754728e-05 0)
(0.072617104 1.0769261e-06 0)
(0.074571141 9.5297365e-06 0)
(0.072857724 4.6395246e-06 0)
(0.074403994 2.8190916e-06 0)
(0.073019326 -3.2734696e-06 0)
(0.074302611 3.7054891e-06 0)
(0.073112848 -4.0175889e-06 0)
(0.07422942 3.9859364e-06 0)
(0.073180381 -3.7199276e-06 0)
(0.074165765 3.6047752e-06 0)
(0.073239249 -3.347124e-06 0)
(0.074109542 3.1900424e-06 0)
(0.073291833 -2.9892322e-06 0)
(0.074059681 2.8299369e-06 0)
(0.073338735 -2.6641215e-06 0)
(0.074015344 2.5169027e-06 0)
(0.073380545 -2.3746824e-06 0)
(0.073975852 2.2430026e-06 0)
(0.073417836 -2.1191762e-06 0)
(0.073940619 2.0029232e-06 0)
(0.073451142 -1.8946639e-06 0)
(0.073909124 1.7926819e-06 0)
(0.073480949 -1.6980747e-06 0)
(0.073880904 1.6090062e-06 0)
(0.073507695 -1.52655e-06 0)
(0.073855541 1.4490988e-06 0)
(0.073531777 -1.3775378e-06 0)
(0.073832659 1.3105424e-06 0)
(0.073553551 -1.2488021e-06 0)
(0.073811918 1.1912477e-06 0)
(0.07357334 -1.1384055e-06 0)
(0.073793012 1.0894173e-06 0)
(0.073591437 -1.0446831e-06 0)
(0.073775661 1.0035136e-06 0)
(0.073608109 -9.6621359e-07 0)
(0.073759609 9.3222411e-07 0)
(0.073623603 -9.0179687e-07 0)
(0.073744619 8.7440625e-07 0)
(0.073638146 -8.5036691e-07 0)
(0.073730471 8.2934409e-07 0)
(0.073651955 -8.0974515e-07 0)
(0.073716941 7.9822928e-07 0)
(0.073665198 -7.809788e-07 0)
(0.073703782 7.426297e-07 0)
(0.073678328 -9.4747257e-07 0)
(0.073692334 6.7461166e-07 0)
(0.067953552 0.0078749236 0)
(0.077865674 -0.00068273299 0)
(0.075635913 0.00042276349 0)
(0.077955826 -2.059981e-05 0)
(0.076066898 -7.0537873e-07 0)
(0.078140421 8.504587e-06 0)
(0.076338083 5.0006164e-06 0)
(0.077980886 2.3529671e-06 0)
(0.076512303 -3.189019e-06 0)
(0.077873422 3.633414e-06 0)
(0.076611205 -4.0485353e-06 0)
(0.077795926 4.0231835e-06 0)
(0.076682831 -3.7557395e-06 0)
(0.077728455 3.6454917e-06 0)
(0.076745338 -3.3812253e-06 0)
(0.077668818 3.2249184e-06 0)
(0.076801154 -3.020558e-06 0)
(0.077615918 2.8603607e-06 0)
(0.076850925 -2.692364e-06 0)
(0.077568877 2.5438106e-06 0)
(0.076895287 -2.3999888e-06 0)
(0.077526976 2.2669634e-06 0)
(0.076934852 -2.1418286e-06 0)
(0.077489594 2.024342e-06 0)
(0.076970189 -1.9149624e-06 0)
(0.077456178 1.8118842e-06 0)
(0.077001813 -1.7163016e-06 0)
(0.077426236 1.626271e-06 0)
(0.077030191 -1.5429626e-06 0)
(0.077399325 1.4646728e-06 0)
(0.077055741 -1.3923691e-06 0)
(0.077375046 1.3246471e-06 0)
(0.077078844 -1.2622633e-06 0)
(0.077353039 1.204084e-06 0)
(0.077099841 -1.1506888e-06 0)
(0.077332978 1.101168e-06 0)
(0.077119043 -1.0559637e-06 0)
(0.077314568 1.0143456e-06 0)
(0.077136732 -9.7665164e-07 0)
(0.077297537 9.4228968e-07 0)
(0.07715317 -9.1153807e-07 0)
(0.077281634 8.8383999e-07 0)
(0.0771686 -8.5954357e-07 0)
(0.077266625 8.3826883e-07 0)
(0.077183248 -8.1839075e-07 0)
(0.077252275 8.0696746e-07 0)
(0.077197299 -7.8890439e-07 0)
(0.077238327 7.4982703e-07 0)
(0.077211172 -9.6368553e-07 0)
(0.077225874 6.7543236e-07 0)
(0.071830391 0.0079061961 0)
(0.080277628 -0.00079052811 0)
(0.079015013 0.00041576048 0)
(0.081291575 -2.2593769e-05 0)
(0.079387392 -3.0237717e-06 0)
(0.08156084 7.4013417e-06 0)
(0.079675392 5.3321441e-06 0)
(0.081409503 1.8225964e-06 0)
(0.079859553 -3.0629409e-06 0)
(0.081295875 3.5300737e-06 0)
(0.079963451 -4.0523517e-06 0)
(0.081214149 4.0354672e-06 0)
(0.080039025 -3.7680172e-06 0)
(0.081142989 3.6638344e-06 0)
(0.08010506 -3.394312e-06 0)
(0.08108005 3.2399097e-06 0)
(0.080164007 -3.0331858e-06 0)
(0.081024209 2.87313e-06 0)
(0.080216557 -2.7039664e-06 0)
(0.08097455 2.5550151e-06 0)
(0.08026339 -2.4104722e-06 0)
(0.080930316 2.2769297e-06 0)
(0.080305157 -2.151256e-06 0)
(0.080890853 2.0332636e-06 0)
(0.080342461 -1.9234373e-06 0)
(0.080855576 1.8199003e-06 0)
(0.080375846 -1.7239311e-06 0)
(0.080823967 1.6334946e-06 0)
(0.080405804 -1.5498475e-06 0)
(0.080795556 1.4712027e-06 0)
(0.080432778 -1.3986022e-06 0)
(0.080769923 1.3305722e-06 0)
(0.080457169 -1.2679298e-06 0)
(0.080746689 1.2094854e-06 0)
(0.080479336 -1.1558669e-06 0)
(0.08072551 1.1061199e-06 0)
(0.080499608 -1.060725e-06 0)
(0.080706074 1.018916e-06 0)
(0.080518283 -9.8106125e-07 0)
(0.080688093 9.4653988e-07 0)
(0.080535636 -9.1565444e-07 0)
(0.080671305 8.8782106e-07 0)
(0.080551924 -8.6341865e-07 0)
(0.080655461 8.4202361e-07 0)
(0.080567386 -8.2199445e-07 0)
(0.080640318 8.107319e-07 0)
(0.080582221 -7.9197365e-07 0)
(0.080625606 7.5245272e-07 0)
(0.080596813 -9.7366184e-07 0)
(0.080612164 6.7205054e-07 0)
(0.076156243 0.0079054892 0)
(0.08289643 -0.00077042773 0)
(0.082224374 0.00040962865 0)
(0.084522506 -2.3507246e-05 0)
(0.082583793 -5.3641524e-06 0)
(0.084832274 6.2904689e-06 0)
(0.082871541 5.6428244e-06 0)
(0.084689714 1.2524351e-06 0)
(0.083061244 -2.8938289e-06 0)
(0.084569933 3.3984675e-06 0)
(0.083169684 -4.0293146e-06 0)
(0.084484024 4.0238176e-06 0)
(0.083249034 -3.757558e-06 0)
(0.084409304 3.6605243e-06 0)
(0.083318476 -3.3871155e-06 0)
(0.084343181 3.2356649e-06 0)
(0.083380446 -3.0277534e-06 0)
(0.084284504 2.8688287e-06 0)
(0.083435677 -2.699488e-06 0)
(0.084232319 2.5510376e-06 0)
(0.083484895 -2.4066263e-06 0)
(0.084185834 2.2733657e-06 0)
(0.083528789 -2.1478963e-06 0)
(0.084144361 2.0301017e-06 0)
(0.083567991 -1.9204788e-06 0)
(0.084107288 1.8170991e-06 0)
(0.083603075 -1.721312e-06 0)
(0.084074068 1.6310075e-06 0)
(0.083634559 -1.5475176e-06 0)
(0.08404421 1.4689856e-06 0)
(0.083662908 -1.396519e-06 0)
(0.08401727 1.3285858e-06 0)
(0.083688542 -1.2660566e-06 0)
(0.083992851 1.207695e-06 0)
(0.083711839 -1.1541718e-06 0)
(0.083970592 1.104495e-06 0)
(0.083733144 -1.0591795e-06 0)
(0.083950165 1.0174289e-06 0)
(0.083752772 -9.7963876e-07 0)
(0.083931268 9.451641e-07 0)
(0.083771009 -9.1432896e-07 0)
(0.083913624 8.8652694e-07 0)
(0.083788126 -8.6216448e-07 0)
(0.083896974 8.4077698e-07 0)
(0.083804374 -8.2072154e-07 0)
(0.083881065 8.0968112e-07 0)
(0.083819966 -7.903552e-07 0)
(0.083865616 7.5066578e-07 0)
(0.08383525 -9.7750887e-07 0)
(0.083851205 6.6475706e-07 0)
(0.080153629 0.0079095661 0)
(0.085209364 -0.00086248888 0)
(0.085261469 0.00039166838 0)
(0.087643257 -2.4746759e-05 0)
(0.08564818 -7.9899243e-06 0)
(0.087952738 5.2049406e-06 0)
(0.085926912 5.8793332e-06 0)
(0.087820901 6.5896684e-07 0)
(0.086117294 -2.6882056e-06 0)
(0.087695483 3.2394289e-06 0)