/*--------------------------------*- C++ -*----------------------------------*\
| =========                 |                                                 |
| \\      /  F ield         | OpenFOAM: The Open Source CFD Toolbox           |
|  \\    /   O peration     | Version:  2312                                  |
|   \\  /    A nd           | Website:  www.openfoam.com                      |
|    \\/     M anipulation  |                                                 |
\*---------------------------------------------------------------------------*/
FoamFile
{
    version     2.0;
    format      ascii;
    arch        "LSB;label=32;scalar=64";
    class       volScalarField;
    location    "1";
    object      p;
}
// * * * * * * * * * * * * * * * * * * * * * * * * * * * * * * * * * * * * * //

dimensions      [0 2 -2 0 0 0 0];

internalField   nonuniform List<scalar> 
4000
(
39.7163
37.612744
36.014523
34.945954
33.92335
33.103221
32.280856
31.524278
30.778827
30.010668
29.303166
28.512821
27.82981
27.019753
26.35532
25.529397
24.879155
24.041182
23.40126
22.554783
21.921759
21.06994
20.44085
19.586411
18.958754
18.103965
17.475698
16.622377
15.991899
15.141437
14.507561
13.66095
13.022869
12.180737
11.537991
10.700638
10.053073
9.2205151
8.5682424
7.7402489
7.0836061
6.2597407
5.5992522
4.7789116
4.1152508
3.2977007
2.6316524
1.8160584
1.1484807
0.33395881
39.670543
37.612303
36.016042
34.945859
33.923398
33.103232
32.280869
31.524278
30.77883
30.010668
29.303165
28.512823
27.829808
27.019755
26.355318
25.5294
24.879152
24.041185
23.401256
22.554787
21.921755
21.069944
20.440846
19.586415
18.95875
18.103969
17.475694
16.622381
15.991895
15.141441
14.507557
13.660954
13.022865
12.18074
11.537988
10.700642
10.05307
9.2205184
8.5682392
7.740252
7.083603
6.2597437
5.5992493
4.7789145
4.115248
3.2977035
2.6316496
1.8160611
1.1484778
0.33396409
39.656496
37.613757
36.018196
34.945577
33.923492
33.103256
32.280893
31.524277
30.778838
30.010668
29.303166
28.512823
27.829809
27.019754
26.355319
25.5294
24.879153
24.041184
23.401257
22.554786
21.921756
21.069943
20.440847
19.586414
18.958751
18.103968
17.475695
16.62238
15.991896
15.14144
14.507558
13.660953
13.022866
12.180739
11.537989
10.700641
10.053071
9.2205175
8.5682401
7.7402511
7.0836039
6.2597429
5.5992501
4.7789137
4.1152488
3.2977027
2.6316503
1.8160603
1.1484782
0.3339658
39.611244
37.609301
36.020237
34.945237
33.923584
33.103276
32.280912
31.524277
30.778845
30.010667
29.303168
28.512821
27.82981
27.019753
26.355321
25.529398
24.879155
24.041182
23.40126
22.554783
21.921759
21.06994
20.44085
19.586412
18.958754
18.103965
17.475697
16.622377
15.991899
15.141437
14.50756
13.66095
13.022869
12.180737
11.537991
10.700638
10.053073
9.2205153
8.5682423
7.740249
7.083606
6.2597408
5.5992521
4.7789117
4.1152507
3.2977008
2.6316522
1.8160583
1.1484798
0.33396605
39.560013
37.60605
36.021971
34.944783
33.923672
33.103287
32.280922
31.524276
30.77885
30.010666
29.303169
28.51282
27.829812
27.019751
26.355322
25.529396
24.879157
24.04118
23.401262
22.554781
21.921761
21.069938
20.440852
19.586409
18.958756
18.103962
17.4757
16.622375
15.991901
15.141435
14.507563
13.660948
13.022871
12.180735
11.537993
10.700636
10.053075
9.2205133
8.5682442
7.7402471
7.0836078
6.259739
5.5992538
4.77891
4.1152524
3.2976991
2.6316538
1.8160564
1.1484813
0.33396613
39.535221
37.601191
36.023225
34.944288
33.923788
33.103289
32.280923
31.524276
30.778854
30.010665
29.30317
28.512819
27.829812
27.01975
26.355324
25.529395
24.879158
24.041178
23.401264
22.554779
21.921763
21.069936
20.440854
19.586407
18.958758
18.103961
17.475702
16.622373
15.991903
15.141434
14.507564
13.660946
13.022873
12.180733
11.537995
10.700635
10.053077
9.2205119
8.5682456
7.7402457
7.0836091
6.2597377
5.5992552
4.7789087
4.1152537
3.2976979
2.6316551
1.816055
1.1484826
0.33396626
39.491224
37.597932
36.024057
34.944023
33.923998
33.103293
32.28092
31.524277
30.778856
30.010664
29.30317
28.512819
27.829813
27.01975
26.355325
25.529394
24.879159
24.041177
23.401265
22.554778
21.921764
21.069935
20.440855
19.586406
18.958759
18.103959
17.475703
16.622372
15.991904
15.141432
14.507566
13.660945
13.022874
12.180732
11.537996
10.700634
10.053078
9.2205107
8.5682468
7.7402446
7.0836102
6.2597366
5.5992562
4.7789076
4.1152548
3.2976968
2.6316561
1.8160538
1.1484837
0.33396638
39.462626
37.595944
36.023586
34.944674
33.92437
33.103309
32.28092
31.52428
30.778857
30.010663
29.30317
28.512818
27.829814
27.019749
26.355325
25.529393
24.87916
24.041176
23.401266
22.554777
21.921765
21.069934
20.440856
19.586405
18.95876
18.103958
17.475704
16.62237
15.991905
15.141431
14.507567
13.660944
13.022875
12.180731
11.537997
10.700633
10.053079
9.2205097
8.5682478
7.7402436
7.0836112
6.2597357
5.5992572
4.7789067
4.1152557
3.2976959
2.631657
1.8160527
1.1484847
0.33396645
39.425643
37.594173
36.022392
34.946426
33.924801
33.10332
32.28092
31.524282
30.778856
30.010662
29.30317
28.512818
27.829814
27.019748
26.355326
25.529392
24.879161
24.041176
23.401267
22.554776
21.921766
21.069933
20.440857
19.586404
18.958761
18.103957
17.475705
16.622369
15.991906
15.14143
14.507568
13.660943
13.022876
12.18073
11.537998
10.700632
10.05308
9.2205088
8.5682486
7.7402428
7.083612
6.2597348
5.599258
4.7789059
4.1152565
3.2976951
2.6316578
1.8160518
1.1484857
0.33396648
39.397962
37.591458
36.021876
34.948147
33.924976
33.103275
32.280909
31.52428
30.778853
30.01066
29.303169
28.512817
27.829814
27.019748
26.355326
25.529392
24.879162
24.041175
23.401267
22.554775
21.921767
21.069932
20.440858
19.586403
18.958762
18.103956
17.475706
16.622369
15.991907
15.141429
14.507569
13.660942
13.022877
12.180729
11.537999
10.700631
10.05308
9.2205081
8.5682494
7.740242
7.0836128
6.2597341
5.5992587
4.7789052
4.1152572
3.2976944
2.6316584
1.816051
1.1484866
0.33396648
39.375167
37.58841
36.021923
34.948585
33.924723
33.103152
32.280875
31.52427
30.778846
30.010657
29.303167
28.512816
27.829814
27.019748
26.355326
25.529391
24.879162
24.041175
23.401268
22.554775
21.921768
21.069931
20.440858
19.586403
18.958763
18.103956
17.475707
16.622368
15.991908
15.141428
14.507569
13.660941
13.022878
12.180728
11.537999
10.70063
10.053081
9.2205074
8.5682501
7.7402414
7.0836134
6.2597334
5.5992594
4.7789045
4.1152578
3.2976937
2.6316591
1.8160502
1.1484875
0.33396646
39.343642
37.583869
36.020996
34.948006
33.92423
33.102983
32.28082
31.524251
30.778835
30.010652
29.303165
28.512815
27.829813
27.019747
26.355327
25.529391
24.879162
24.041174
23.401268
22.554774
21.921768
21.069931
20.440859
19.586402
18.958763
18.103955
17.475707
16.622367
15.991908
15.141428
14.50757
13.660941
13.022878
12.180728
11.538
10.70063
10.053082
9.2205068
8.5682507
7.7402408
7.083614
6.2597329
5.5992599
4.778904
4.1152584
3.2976932
2.6316596
1.8160496
1.1484883
0.33396642
39.3189
37.578893
36.01918
34.947085
33.923683
33.102802
32.280751
31.524228
30.77882
30.010645
29.303162
28.512814
27.829813
27.019747
26.355327
25.529391
24.879162
24.041174
23.401269
22.554774
21.921769
21.069931
20.44086
19.586401
18.958764
18.103954
17.475708
16.622367
15.991909
15.141427
14.50757
13.66094
13.022879
12.180727
11.538
10.700629
10.053082
9.2205062
8.5682512
7.7402403
7.0836145
6.2597324
5.5992604
4.7789034
4.1152589
3.2976926
2.6316601
1.816049
1.1484891
0.33396637
39.299188
37.572273
36.016479
34.946108
33.923145
33.102624
32.280678
31.524205
30.778805
30.010638
29.303158
28.512813
27.829812
27.019747
26.355327
25.529391
24.879163
24.041174
23.401269
22.554774
21.921769
21.06993
20.44086
19.586401
18.958764
18.103954
17.475708
16.622366
15.991909
15.141427
14.507571
13.66094
13.022879
12.180727
11.538001
10.700629
10.053083
9.2205058
8.5682517
7.7402398
7.083615
6.2597319
5.5992609
4.778903
4.1152594
3.2976922
2.6316605
1.8160484
1.1484898
0.33396632
39.281309
37.566092
36.01358
34.945076
33.922591
33.10244
32.280597
31.524181
30.778787
30.01063
29.303154
28.512811
27.829811
27.019746
26.355326
25.52939
24.879163
24.041173
23.401269
22.554773
21.921769
21.06993
20.44086
19.586401
18.958765
18.103954
17.475709
16.622366
15.99191
15.141426
14.507571
13.660939
13.02288
12.180726
11.538001
10.700628
10.053083
9.2205053
8.5682521
7.7402394
7.0836154
6.2597315
5.5992613
4.7789026
4.1152598
3.2976918
2.6316609
1.816048
1.1484905
0.33396626
39.265719
37.559191
36.010577
34.943848
33.921955
33.102228
32.280504
31.524157
30.778769
30.010621
29.303149
28.51281
27.82981
27.019746
26.355326
25.52939
24.879163
24.041173
23.401269
22.554773
21.921769
21.06993
20.44086
19.5864
18.958765
18.103953
17.475709
16.622366
15.99191
15.141426
14.507572
13.660939
13.02288
12.180726
11.538002
10.700628
10.053084
9.220505
8.5682525
7.740239
7.0836158
6.2597311
5.5992617
4.7789022
4.1152602
3.2976914
2.6316613
1.8160475
1.1484912
0.3339662
39.250178
37.553351
36.008353
34.942362
33.921198
33.101982
32.280396
31.524131
30.77875
30.010613
29.303144
28.512808
27.829809
27.019745
26.355326
25.52939
24.879163
24.041173
23.401269
22.554773
21.92177
21.069929
20.440861
19.5864
18.958765
18.103953
17.475709
16.622365
15.99191
15.141426
14.507572
13.660939
13.02288
12.180726
11.538002
10.700627
10.053084
9.2205046
8.5682528
7.7402386
7.0836161
6.2597307
5.5992621
4.7789018
4.1152605
3.297691
2.6316616
1.8160471
1.1484919
0.33396614
39.23993
37.547141
36.006696
34.94078
33.920432
33.101737
32.280286
31.524106
30.778733
30.010605
29.30314
28.512806
27.829807
27.019745
26.355325
25.52939
24.879162
24.041173
23.401269
22.554773
21.92177
21.069929
20.440861
19.5864
18.958765
18.103953
17.475709
16.622365
15.991911
15.141425
14.507572
13.660938
13.022881
12.180725
11.538002
10.700627
10.053084
9.2205043
8.5682531
7.7402383
7.0836165
6.2597304
5.5992624
4.7789015
4.1152609
3.2976907
2.6316619
1.8160468
1.1484925
0.33396608
39.224556
37.540943
36.005288
34.939351
33.919794
33.101533
32.280191
31.524085
30.778717
30.010601
29.303136
28.512805
27.829806
27.019745
26.355325
25.52939
24.879162
24.041173
23.401269
22.554773
21.92177
21.069929
20.440861
19.5864
18.958766
18.103953
17.47571
16.622365
15.991911
15.141425
14.507573
13.660938
13.022881
12.180725
11.538003
10.700627
10.053085
9.220504
8.5682534
7.740238
7.0836168
6.2597301
5.5992627
4.7789012
4.1152611
3.2976904
2.6316621
1.8160465
1.1484931
0.33396602
39.214674
37.535391
36.003425
34.938192
33.91932
33.101379
32.280114
31.524071
30.778704
30.010599
29.303133
28.512805
27.829805
27.019745
26.355324
25.52939
24.879162
24.041173
23.401269
22.554773
21.92177
21.069929
20.440861
19.5864
18.958766
18.103953
17.47571
16.622365
15.991911
15.141425
14.507573
13.660938
13.022881
12.180725
11.538003
10.700627
10.053085
9.2205037
8.5682537
7.7402377
7.083617
6.2597299
5.5992629
4.7789009
4.1152614
3.2976901
2.6316624
1.8160462
1.1484937
0.33396597
39.203746
37.53055
36.00141
34.937256
33.91895
33.101261
32.280052
31.524062
30.77869
30.0106
29.303131
28.512804
27.829804
27.019744
26.355324
25.52939
24.879162
24.041173
23.401269
22.554773
21.92177
21.069929
20.440861
19.5864
18.958766
18.103952
17.47571
16.622364
15.991911
15.141425
14.507573
13.660938
13.022881
12.180725
11.538003
10.700626
10.053085
9.2205035
8.5682539
7.7402375
7.0836173
6.2597296
5.5992632
4.7789007
4.1152617
3.2976898
2.6316626
1.816046
1.1484942
0.33396592
39.195872
37.526366
35.999195
34.936414
33.918624
33.101158
32.279998
31.524055
30.778676
30.010602
29.303129
28.512804
27.829803
27.019744
26.355323
25.52939
24.879162
24.041173
23.401269
22.554773
21.92177
21.069929
20.440861
19.5864
18.958766
18.103952
17.47571
16.622364
15.991911
15.141425
14.507573
13.660937
13.022882
12.180724
11.538003
10.700626
10.053085
9.2205033
8.5682542
7.7402373
7.0836175
6.2597294
5.5992634
4.7789005
4.1152619
3.2976896
2.6316628
1.8160458
1.1484947
0.33396587
39.188289
37.522395
35.997207
34.935628
33.918316
33.101063
32.279946
31.52405
30.77866
30.010606
29.303127
28.512804
27.829803
27.019744
26.355323
25.52939
24.879161
24.041173
23.401269
22.554773
21.92177
21.069929
20.440861
19.586399
18.958766
18.103952
17.47571
16.622364
15.991911
15.141424
14.507573
13.660937
13.022882
12.180724
11.538004
10.700626
10.053085
9.220503
8.5682544
7.740237
7.0836177
6.2597292
5.5992636
4.7789002
4.1152621
3.2976894
2.631663
1.8160456
1.1484952
0.33396582
39.182155
37.518987
35.99527
34.934885
33.918029
33.100973
32.279898
31.524046
30.778642
30.010611
29.303126
28.512804
27.829802
27.019744
26.355322
25.52939
24.879161
24.041173
23.401269
22.554773
21.92177
21.069929
20.440861
19.586399
18.958766
18.103952
17.47571
16.622364
15.991912
15.141424
14.507574
13.660937
13.022882
12.180724
11.538004
10.700626
10.053086
9.2205029
8.5682546
7.7402368
7.0836179
6.259729
5.5992638
4.7789
4.1152623
3.2976892
2.6316632
1.8160454
1.1484957
0.33396578
39.176026
37.515574
35.993618
34.934214
33.917767
33.100892
32.279852
31.524043
30.778623
30.010617
29.303124
28.512804
27.829801
27.019744
26.355322
25.52939
24.879161
24.041173
23.401268
22.554773
21.92177
21.069929
20.440861
19.586399
18.958766
18.103952
17.47571
16.622364
15.991912
15.141424
14.507574
13.660937
13.022882
12.180724
11.538004
10.700626
10.053086
9.2205027
8.5682547
7.7402367
7.0836181
6.2597288
5.599264
4.7788999
4.1152625
3.297689
2.6316634
1.8160453
1.1484961
0.33396574
39.170966
37.512898
35.992046
34.933607
33.917538
33.100823
32.279812
31.524042
30.778603
30.010624
29.303124
28.512805
27.8298
27.019744
26.355321
25.52939
24.87916
24.041173
23.401268
22.554773
21.921769
21.069929
20.440861
19.586399
18.958766
18.103952
17.47571
16.622364
15.991912
15.141424
14.507574
13.660937
13.022882
12.180724
11.538004
10.700625
10.053086
9.2205025
8.5682549
7.7402365
7.0836183
6.2597286
5.5992642
4.7788997
4.1152627
3.2976888
2.6316636
1.8160452
1.1484965
0.33396571
39.166194
37.510091
35.990747
34.933089
33.917343
33.100767
32.279778
31.524044
30.778582
30.010631
29.303123
28.512805
27.8298
27.019744
26.355321
25.52939
24.87916
24.041173
23.401268
22.554773
21.921769
21.069929
20.440861
19.586399
18.958766
18.103952
17.47571
16.622364
15.991912
15.141424
14.507574
13.660937
13.022882
12.180724
11.538004
10.700625
10.053086
9.2205024
8.5682551
7.7402364
7.0836184
6.2597285
5.5992644
4.7788995
4.1152628
3.2976886
2.6316637
1.8160451
1.1484969
0.33396568
39.162057
37.50816
35.989556
34.932641
33.917182
33.100723
32.279749
31.524048
30.778561
30.010638
29.303123
28.512807
27.829799
27.019744
26.355321
25.52939
24.87916
24.041173
23.401268
22.554773
21.921769
21.069929
20.440861
19.586399
18.958766
18.103952
17.475711
16.622364
15.991912
15.141424
14.507574
13.660937
13.022883
12.180723
11.538004
10.700625
10.053086
9.2205022
8.5682552
7.7402362
7.0836186
6.2597283
5.5992645
4.7788994
4.115263
3.2976885
2.6316638
1.816045
1.1484972
0.33396565
39.158456
37.505943
35.988608
34.932279
33.917053
33.100692
32.279726
31.524054
30.778542
30.010644
29.303122
28.512809
27.829799
27.019744
26.35532
25.52939
24.87916
24.041173
23.401268
22.554773
21.921769
21.069929
20.440861
19.586399
18.958766
18.103952
17.475711
16.622364
15.991912
15.141424
14.507574
13.660937
13.022883
12.180723
11.538004
10.700625
10.053086
9.2205021
8.5682553
7.7402361
7.0836187
6.2597282
5.5992646
4.7788993
4.1152631
3.2976883
2.631664
1.8160449
1.1484976
0.33396563
39.155083
37.504681
35.987773
34.931979
33.916955
33.100672
32.279708
31.524061
30.778524
30.01065
29.303121
28.512811
27.829799
27.019745
26.35532
25.52939
24.879159
24.041173
23.401268
22.554773
21.921769
21.069929
20.440861
19.586399
18.958766
18.103952
17.475711
16.622364
15.991912
15.141424
14.507574
13.660936
13.022883
12.180723
11.538005
10.700625
10.053086
9.220502
8.5682554
7.740236
7.0836188
6.2597281
5.5992647
4.7788991
4.1152632
3.2976882
2.6316641
1.8160448
1.1484978
0.33396561
39.152541
37.502969
35.987131
34.931752
33.916884
33.100663
32.279696
31.52407
30.778508
30.010656
29.303119
28.512814
27.829799
27.019745
26.35532
25.52939
24.879159
24.041173
23.401267
22.554773
21.921769
21.069929
20.440861
19.586399
18.958766
18.103952
17.475711
16.622364
15.991912
15.141424
14.507574
13.660936
13.022883
12.180723
11.538005
10.700625
10.053087
9.2205019
8.5682555
7.7402359
7.0836189
6.259728
5.5992648
4.778899
4.1152633
3.2976881
2.6316642
1.8160448
1.1484981
0.33396559
39.149662
37.502233
35.986595
34.931575
33.916837
33.100663
32.279689
31.52408
30.778495
30.010662
29.303116
28.512817
27.8298
27.019745
26.355319
25.52939
24.879159
24.041173
23.401267
22.554773
21.921769
21.069929
20.440861
19.586399
18.958766
18.103952
17.475711
16.622363
15.991912
15.141424
14.507574
13.660936
13.022883
12.180723
11.538005
10.700625
10.053087
9.2205018
8.5682556
7.7402358
7.083619
6.2597279
5.5992649
4.7788989
4.1152634
3.297688
2.6316643
1.8160447
1.1484983
0.33396558
39.148091
37.500943
35.986199
34.931456
33.91681
33.10067
32.279685
31.52409
30.778484
30.010667
29.303112
28.51282
27.8298
27.019746
26.355319
25.52939
24.879158
24.041173
23.401267
22.554773
21.921769
21.069929
20.440861
19.586399
18.958766
18.103952
17.475711
16.622363
15.991912
15.141424
14.507574
13.660936
13.022883
12.180723
11.538005
10.700625
10.053087
9.2205018
8.5682557
7.7402357
7.0836191
6.2597278
5.599265
4.7788989
4.1152635
3.2976879
2.6316643
1.8160447
1.1484985
0.33396558
39.145528
37.50053
35.9859
34.931377
33.916805
33.100684
32.279686
31.5241
30.778475
30.010672
29.303108
28.512824
27.829801
27.019746
26.355319
25.52939
24.879158
24.041173
23.401267
22.554773
21.921769
21.069929
20.440861
19.586399
18.958766
18.103952
17.475711
16.622363
15.991912
15.141424
14.507574
13.660936
13.022883
12.180723
11.538005
10.700625
10.053087
9.2205017
8.5682558
7.7402356
7.0836191
6.2597277
5.5992651
4.7788988
4.1152636
3.2976878
2.6316644
1.8160446
1.1484987
0.33396558
39.144492
37.499655
35.985728
34.931351
33.916815
33.100705
32.279691
31.524111
30.778468
30.010677
29.303103
28.512827
27.829802
27.019747
26.355319
25.52939
24.879158
24.041173
23.401267
22.554773
21.921769
21.069929
20.440861
19.586399
18.958766
18.103952
17.475711
16.622363
15.991912
15.141424
14.507574
13.660936
13.022883
12.180723
11.538005
10.700625
10.053087
9.2205016
8.5682558
7.7402356
7.0836192
6.2597277
5.5992652
4.7788987
4.1152636
3.2976878
2.6316644
1.8160446
1.1484988
0.33396559
39.142458
37.499565
35.985643
34.931358
33.916843
33.10073
32.279699
31.524121
30.778463
30.010682
29.303099
28.512829
27.829803
27.019748
26.355319
25.52939
24.879158
24.041173
23.401267
22.554773
21.921768
21.069929
20.440861
19.586399
18.958766
18.103952
17.475711
16.622363
15.991912
15.141424
14.507574
13.660936
13.022883
12.180723
11.538005
10.700624
10.053087
9.2205016
8.5682559
7.7402355
7.0836192
6.2597276
5.5992652
4.7788987
4.1152637
3.2976877
2.6316645
1.8160446
1.1484988
0.33396562
39.141873
37.49903
35.98565
34.931402
33.91688
33.100758
32.279709
31.524131
30.77846
30.010686
29.303096
28.51283
27.829804
27.019749
26.355319
25.52939
24.879158
24.041173
23.401266
22.554773
21.921768
21.069929
20.440861
19.586399
18.958766
18.103952
17.475711
16.622363
15.991912
15.141424
14.507574
13.660936
13.022883
12.180723
11.538005
10.700624
10.053087
9.2205016
8.5682559
7.7402355
7.0836193
6.2597276
5.5992652
4.7788987
4.1152637
3.2976877
2.6316645
1.8160446
1.1484989
0.33396565
39.140454
37.499194
35.985709
34.931456
33.916924
33.100786
32.27972
31.52414
30.77846
30.010688
29.303095
28.512829
27.829805
27.019749
26.355319
25.52939
24.879157
24.041173
23.401266
22.554773
21.921768
21.069929
20.440861
19.586399
18.958766
18.103952
17.475711
16.622363
15.991912
15.141424
14.507574
13.660936
13.022883
12.180723
11.538005
10.700624
10.053087
9.2205016
8.5682559
7.7402355
7.0836193
6.2597276
5.5992652
4.7788986
4.1152637
3.2976877
2.6316645
1.8160446
1.1484988
0.3339657
39.140328
37.498906
35.985806
34.931522
33.916964
33.10081
32.27973
31.524146
30.778461
30.010688
29.303097
28.512825
27.829809
27.019749
26.35532
25.52939
24.879157
24.041173
23.401266
22.554773
21.921768
21.069929
20.44086
19.586399
18.958766
18.103952
17.475711
16.622363
15.991912
15.141424
14.507574
13.660936
13.022883
12.180723
11.538005
10.700624
10.053087
9.2205016
8.5682559
7.7402355
7.0836193
6.2597276
5.5992652
4.7788987
4.1152637
3.2976877
2.6316645
1.8160445
1.1484988
0.33396575
39.139336
37.499294
35.985907
34.931569
33.916994
33.100825
32.279736
31.524149
30.778462
30.010687
29.3031
28.51282
27.829813
27.019748
26.355322
25.52939
24.879157
24.041173
23.401266
22.554773
21.921768
21.069929
20.44086
19.586399
18.958766
18.103952
17.47571
16.622364
15.991912
15.141424
14.507574
13.660936
13.022883
12.180723
11.538005
10.700624
10.053087
9.2205016
8.5682559
7.7402355
7.0836193
6.2597276
5.5992652
4.7788987
4.1152637
3.2976877
2.6316645
1.8160445
1.1484987
0.33396579
39.139599
37.499181
35.985979
34.931594
33.917002
33.100828
32.279738
31.524149
30.778462
30.010686
29.3031
28.512819
27.829814
27.019747
26.355322
25.52939
24.879157
24.041173
23.401266
22.554773
21.921768
21.069929
20.44086
19.586399
18.958766
18.103952
17.47571
16.622364
15.991912
15.141424
14.507574
13.660936
13.022883
12.180723
11.538005
10.700624
10.053087
9.2205016
8.5682559
7.7402355
7.0836193
6.2597276
5.5992652
4.7788987
4.1152637
3.2976877
2.6316645
1.8160445
1.1484987
0.33396579
39.139034
37.499652
35.986009
34.931576
33.916993
33.10082
32.279734
31.524147
30.77846
30.010687
29.303098
28.512823
27.829811
27.019748
26.355321
25.52939
24.879157
24.041173
23.401266
22.554773
21.921768
21.069929
20.44086
19.586399
18.958766
18.103952
17.475711
16.622363
15.991912
15.141424
14.507574
13.660936
13.022883
12.180723
11.538005
10.700624
10.053087
9.2205016
8.5682559
7.7402355
7.0836193
6.2597276
5.5992652
4.7788987
4.1152637
3.2976877
2.6316645
1.8160445
1.1484988
0.33396575
39.139747
37.499691
35.986038
34.931555
33.916972
33.100807
32.279727
31.524142
30.778459
30.010687
29.303095
28.512828
27.829807
27.019749
26.355319
25.52939
24.879157
24.041173
23.401266
22.554773
21.921768
21.069929
20.440861
19.586399
18.958766
18.103952
17.475711
16.622363
15.991912
15.141424
14.507574
13.660936
13.022883
12.180723
11.538005
10.700624
10.053087
9.2205016
8.5682559
7.7402355
7.0836193
6.2597276
5.5992652
4.7788986
4.1152637
3.2976877
2.6316645
1.8160446
1.1484988
0.3339657
39.139582
37.500388
35.986109
34.931531
33.916953
33.10079
32.27972
31.524136
30.778459
30.010685
29.303096
28.512829
27.829805
27.019748
26.355319
25.52939
24.879158
24.041173
23.401266
22.554773
21.921768
21.069929
20.440861
19.586399
18.958766
18.103952
17.475711
16.622363
15.991912
15.141424
14.507574
13.660936
13.022883
12.180723
11.538005
10.700624
10.053087
9.2205016
8.5682559
7.7402355
7.0836193
6.2597276
5.5992652
4.7788987
4.1152637
3.2976877
2.6316645
1.8160446
1.1484989
0.33396565
39.140849
37.500677
35.986239
34.93154
33.916938
33.100775
32.279714
31.524128
30.778461
30.010682
29.303098
28.512829
27.829804
27.019747
26.355319
25.52939
24.879158
24.041173
23.401267
22.554773
21.921768
21.069929
20.440861
19.586399
18.958766
18.103952
17.475711
16.622363
15.991912
15.141424
14.507574
13.660936
13.022883
12.180723
11.538005
10.700624
10.053087
9.2205016
8.5682559
7.7402355
7.0836192
6.2597276
5.5992652
4.7788987
4.1152637
3.2976877
2.6316645
1.8160446
1.1484988
0.33396561
39.141155
37.501635
35.986455
34.931569
33.916938
33.100762
32.279711
31.52412
30.778466
30.010677
29.303103
28.512826
27.829803
27.019746
26.355319
25.52939
24.879158
24.041173
23.401267
22.554773
21.921769
21.069929
20.440861
19.586399
18.958766
18.103952
17.475711
16.622363
15.991912
15.141424
14.507574
13.660936
13.022883
12.180723
11.538005
10.700625
10.053087
9.2205016
8.5682558
7.7402356
7.0836192
6.2597277
5.5992652
4.7788987
4.1152636
3.2976878
2.6316644
1.8160446
1.1484988
0.33396559
39.142987
37.502235
35.986765
34.931651
33.916951
33.100756
32.279712
31.524112
30.778473
30.010672
29.303108
28.512823
27.829802
27.019746
26.355319
25.52939
24.879158
24.041173
23.401267
22.554773
21.921769
21.069929
20.440861
19.586399
18.958766
18.103952
17.475711
16.622363
15.991912
15.141424
14.507574
13.660936
13.022883
12.180723
11.538005
10.700625
10.053087
9.2205017
8.5682558
7.7402356
7.0836191
6.2597277
5.5992651
4.7788988
4.1152636
3.2976878
2.6316644
1.8160446
1.1484987
0.33396558
39.143762
37.5036
35.987192
34.931761
33.916985
33.100755
32.279716
31.524105
30.778482
30.010667
29.303112
28.51282
27.829801
27.019745
26.355319
25.52939
24.879158
24.041173
23.401267
22.554773
21.921769
21.069929
20.440861
19.586399
18.958766
18.103952
17.475711
16.622363
15.991912
15.141424
14.507574
13.660936
13.022883
12.180723
11.538005
10.700625
10.053087
9.2205018
8.5682557
7.7402357
7.0836191
6.2597278
5.599265
4.7788989
4.1152635
3.2976879
2.6316643
1.8160447
1.1484985
0.33396558
39.145961
37.504487
35.987723
34.931935
33.917034
33.100762
32.279724
31.524097
30.778493
30.010662
29.303117
28.512816
27.829801
27.019745
26.355319
25.52939
24.879159
24.041173
23.401267
22.554773
21.921769
21.069929
20.440861
19.586399
18.958766
18.103952
17.475711
16.622363
15.991912
15.141424
14.507574
13.660936
13.022883
12.180723
11.538005
10.700625
10.053087
9.2205018
8.5682556
7.7402358
7.083619
6.2597279
5.5992649
4.7788989
4.1152634
3.297688
2.6316642
1.8160447
1.1484983
0.33396558
39.14755
37.506324
35.988378
34.932139
33.917108
33.100776
32.279736
31.524091
30.778506
30.010657
29.30312
28.512812
27.8298
27.019744
26.35532
25.52939
24.879159
24.041173
23.401267
22.554773
21.921769
21.069929
20.440861
19.586399
18.958766
18.103952
17.475711
16.622364
15.991912
15.141424
14.507574
13.660936
13.022883
12.180723
11.538005
10.700625
10.053087
9.2205019
8.5682555
7.7402359
7.0836189
6.259728
5.5992649
4.778899
4.1152633
3.2976881
2.6316642
1.8160448
1.1484981
0.33396559
39.1501
37.507583
35.989177
34.932421
33.917202
33.1008
32.279754
31.524085
30.778522
30.010652
29.303123
28.512809
27.8298
27.019744
26.35532
25.52939
24.879159
24.041173
23.401268
22.554773
21.921769
21.069929
20.440861
19.586399
18.958766
18.103952
17.475711
16.622364
15.991912
15.141424
14.507574
13.660936
13.022883
12.180723
11.538005
10.700625
10.053086
9.220502
8.5682554
7.740236
7.0836188
6.2597281
5.5992647
4.7788991
4.1152632
3.2976882
2.6316641
1.8160448
1.1484978
0.33396561
39.152694
37.509906
35.990094
34.932743
33.917327
33.100833
32.279777
31.52408
30.77854
30.010646
29.303124
28.512807
27.8298
27.019744
26.35532
25.52939
24.87916
24.041173
23.401268
22.554773
21.921769
21.069929
20.440861
19.586399
18.958766
18.103952
17.475711
16.622364
15.991912
15.141424
14.507574
13.660937
13.022883
12.180723
11.538004
10.700625
10.053086
9.2205021
8.5682553
7.7402361
7.0836187
6.2597282
5.5992646
4.7788993
4.1152631
3.2976883
2.6316639
1.8160449
1.1484976
0.33396563
39.155913
37.511731
35.991229
34.933161
33.917478
33.100879
32.279806
31.524077
30.778561
30.01064
29.303125
28.512804
27.8298
27.019743
26.355321
25.52939
24.87916
24.041173
23.401268
22.554773
21.921769
21.069929
20.440861
19.586399
18.958766
18.103952
17.475711
16.622364
15.991912
15.141424
14.507574
13.660937
13.022883
12.180723
11.538004
10.700625
10.053086
9.2205023
8.5682552
7.7402362
7.0836185
6.2597283
5.5992645
4.7788994
4.115263
3.2976885
2.6316638
1.816045
1.1484972
0.33396565
39.159653
37.51464
35.992452
34.933626
33.917664
33.100936
32.27984
31.524076
30.778582
30.010633
29.303125
28.512803
27.8298
27.019743
26.355321
25.52939
24.87916
24.041173
23.401268
22.554773
21.921769
21.069929
20.440861
19.586399
18.958766
18.103952
17.475711
16.622364
15.991912
15.141424
14.507574
13.660937
13.022882
12.180724
11.538004
10.700625
10.053086
9.2205024
8.5682551
7.7402363
7.0836184
6.2597285
5.5992644
4.7788995
4.1152628
3.2976886
2.6316637
1.8160451
1.1484969
0.33396568
39.163747
37.517154
35.993961
34.934194
33.917879
33.101006
32.279881
31.524077
30.778604
30.010626
29.303126
28.512802
27.829801
27.019743
26.355322
25.52939
24.879161
24.041173
23.401268
22.554773
21.921769
21.069929
20.440861
19.586399
18.958766
18.103952
17.47571
16.622364
15.991912
15.141424
14.507574
13.660937
13.022882
12.180724
11.538004
10.700625
10.053086
9.2205025
8.5682549
7.7402365
7.0836183
6.2597286
5.5992642
4.7788997
4.1152627
3.2976888
2.6316635
1.8160452
1.1484965
0.33396571
39.168785
37.520706
35.995506
34.934807
33.918129
33.101087
32.279926
31.52408
30.778626
30.010619
29.303126
28.512802
27.829802
27.019743
26.355322
25.52939
24.879161
24.041173
23.401268
22.554773
21.92177
21.069929
20.440861
19.586399
18.958766
18.103952
17.47571
16.622364
15.991912
15.141424
14.507574
13.660937
13.022882
12.180724
11.538004
10.700626
10.053086
9.2205027
8.5682547
7.7402367
7.0836181
6.2597288
5.599264
4.7788999
4.1152625
3.297689
2.6316634
1.8160453
1.1484961
0.33396574
39.173952
37.523947
35.997393
34.935517
33.918405
33.101179
32.279977
31.524085
30.778646
30.010613
29.303128
28.512802
27.829802
27.019743
26.355323
25.52939
24.879161
24.041173
23.401269
22.554773
21.92177
21.069929
20.440861
19.586399
18.958766
18.103952
17.47571
16.622364
15.991912
15.141424
14.507574
13.660937
13.022882
12.180724
11.538004
10.700626
10.053086
9.2205029
8.5682546
7.7402368
7.0836179
6.259729
5.5992639
4.7789
4.1152623
3.2976891
2.6316632
1.8160454
1.1484957
0.33396578
39.18069
37.528092
35.999246
34.936256
33.91871
33.101279
32.28003
31.524092
30.778664
30.010608
29.303129
28.512802
27.829803
27.019744
26.355323
25.52939
24.879161
24.041173
23.401269
22.554773
21.92177
21.069929
20.440861
19.586399
18.958766
18.103952
17.47571
16.622364
15.991911
15.141424
14.507573
13.660937
13.022882
12.180724
11.538004
10.700626
10.053085
9.2205031
8.5682544
7.740237
7.0836177
6.2597292
5.5992637
4.7789002
4.1152621
3.2976894
2.631663
1.8160456
1.1484952
0.33396582
39.187414
37.532093
36.001473
34.937075
33.919032
33.101386
32.280086
31.5241
30.778681
30.010605
29.303131
28.512802
27.829804
27.019744
26.355324
25.52939
24.879162
24.041173
23.401269
22.554773
21.92177
21.069929
20.440861
19.5864
18.958766
18.103952
17.47571
16.622364
15.991911
15.141425
14.507573
13.660937
13.022882
12.180724
11.538003
10.700626
10.053085
9.2205033
8.5682542