/*--------------------------------*- C++ -*----------------------------------*\
| =========                 |                                                 |
| \\      /  F ield         | OpenFOAM: The Open Source CFD Toolbox           |
|  \\    /   O peration     | Version:  2312                                  |
|   \\  /    A nd           | Website:  www.openfoam.com                      |
|    \\/     M anipulation  |                                                 |
\*---------------------------------------------------------------------------*/
FoamFile
{
    version     2.0;
    format      ascii;
    arch        "LSB;label=32;scalar=64";
    class       volScalarField;
    location    "10";
    object      T;
}
// * * * * * * * * * * * * * * * * * * * * * * * * * * * * * * * * * * * * * //

dimensions      [0 0 0 1 0 0 0];

internalField   nonuniform List<scalar> 
4000
(
310.87571
312.18962
312.44461
312.51257
312.59171
312.64357
312.69356
312.73688
312.77876
312.81682
312.85506
312.89045
312.92643
312.96028
312.99467
313.02751
313.06073
313.09289
313.12521
313.15686
313.18847
313.21976
313.25078
313.28181
313.31234
313.34316
313.37329
313.40395
313.43372
313.46427
313.49373
313.52419
313.55337
313.58377
313.61269
313.64306
313.67174
313.70211
313.73055
313.76093
313.78915
313.81957
313.84754
313.87805
313.90576
313.93641
313.96378
313.99471
314.02151
314.05348
308.63759
310.76159
311.45923
311.60744
311.78775
311.88686
311.98023
312.05369
312.12276
312.18048
312.23864
312.28833
312.33974
312.38478
312.43144
312.47348
312.51661
312.55659
312.59702
312.6355
312.67379
312.71119
312.74773
312.78431
312.81941
312.85536
312.88923
312.92472
312.95753
312.99267
313.02454
313.05943
313.09045
313.12517
313.15542
313.19005
313.21957
313.25417
313.283
313.31764
313.34577
313.38056
313.40796
313.44299
313.4696
313.50506
313.53066
313.56694
313.59084
313.63013
307.25601
309.38853
310.48198
310.70851
310.98734
311.13314
311.26924
311.37268
311.46861
311.54593
311.62379
311.68779
311.75444
311.81071
311.86949
311.92076
311.97371
312.02153
312.06998
312.11533
312.16023
312.20375
312.24576
312.28791
312.32752
312.36864
312.40621
312.44655
312.48235
312.5221
312.55634
312.59568
312.62852
312.66757
312.69912
312.73801
312.76836
312.8072
312.83639
312.87531
312.90334
312.94249
312.96931
313.00887
313.03436
313.07463
313.09845
313.14008
313.16112
313.20739
306.34138
308.11721
309.52708
309.82445
310.19588
310.38653
310.56378
310.69659
310.81859
310.9153
311.01235
311.09056
311.1721
311.23956
311.3102
311.37069
311.43322
311.48891
311.54521
311.59743
311.6488
311.69847
311.74582
311.79358
311.83759
311.8839
311.92507
311.97028
312.009
312.05339
312.08994
312.13373
312.16833
312.21173
312.24454
312.2877
312.31883
312.36193
312.39144
312.43464
312.46255
312.50606
312.53228
312.57637
312.60073
312.64581
312.66785
312.71479
312.73304
312.78581
305.70823
306.9893
308.61304
308.96688
309.42084
309.65266
309.86825
310.02912
310.17581
310.29136
310.40674
310.49889
310.59472
310.67322
310.75526
310.8249
310.89667
310.96018
311.02405
311.08314
311.14074
311.19656
311.24906
311.30242
311.35068
311.40218
311.44683
311.49692
311.53844
311.58747
311.62623
311.6745
311.71077
311.75851
311.7925
311.83995
311.8718
311.91915
311.94894
311.99643
312.02416
312.07204
312.09763
312.14623
312.16945
312.21929
312.23958
312.29175
312.30735
312.36605
305.25563
306.03007
307.75905
308.14944
308.6712
308.93836
309.18805
309.37478
309.54409
309.67751
309.80993
309.91549
310.02471
310.11395
310.20673
310.28534
310.36585
310.43706
310.5081
310.57397
310.63749
310.6994
310.75679
310.81573
310.86801
310.92468
310.97261
311.02757
311.07173
311.1254
311.16623
311.21895
311.25679
311.30887
311.34395
311.39566
311.42815
311.47975
311.50974
311.56149
311.589
311.64122
311.66614
311.71922
311.74128
311.79584
311.8144
311.87166
311.88483
311.94886
304.92521
305.25185
306.98249
307.38627
307.95668
308.2513
308.52932
308.73869
308.9278
309.07758
309.22532
309.34345
309.46486
309.56433
309.66697
309.75421
309.84277
309.92147
309.99915
310.07165
310.14066
310.20856
310.27049
310.33491
310.39092
310.4527
310.50368
310.56344
310.61005
310.6683
310.71104
310.76818
310.80743
310.86381
310.89986
310.9558
310.98883
311.04463
311.07475
311.13072
311.15795
311.21445
311.23867
311.29615
311.31707
311.37622
311.39313
311.45527
311.46629
311.53504
304.67941
304.65116
306.29597
306.69039
307.28688
307.59941
307.89859
308.12636
308.3317
308.49578
308.65662
308.78613
308.91822
309.02714
309.13854
309.2339
309.32968
309.41551
309.49917
309.57804
309.65201
309.7257
309.79173
309.86149
309.92089
309.98765
310.04138
310.10585
310.15465
310.2174
310.26184
310.32331
310.36381
310.42442
310.46129
310.52139
310.55485
310.61477
310.64494
310.70504
310.73193
310.79262
310.81612
310.87788
310.89767
310.96126
310.97661
311.04335
311.05254
311.12543
304.493
304.21318
305.70654
306.07196
306.67029
306.99027
307.30234
307.54338
307.7607
307.93646
308.10775
308.24706
308.38799
308.50537
308.62418
308.72696
308.82895
308.9214
309.01025
309.09511
309.17341
309.2526
309.32223
309.39709
309.45946
309.531
309.58715
309.65616
309.70687
309.77397
309.81987
309.88556
309.92711
309.99182
310.02936
310.09349
310.12725
310.19118
310.2213
310.28542
310.31191
310.37664
310.3994
310.46529
310.48398
310.55179
310.56571
310.63672
310.64439
310.72089
304.34845
303.91445
305.21504
305.53688
306.11364
306.43057
306.74658
306.99508
307.2196
307.40392
307.58261
307.72982
307.87747
308.00203
308.12669
308.23601
308.34302
308.44144
308.53455
308.62492
308.70682
308.7911
308.86375
308.94339
309.00824
309.08431
309.14246
309.21579
309.26809
309.33934
309.38643
309.45614
309.49852
309.56717
309.60519
309.67321
309.70713
309.77491
309.80487
309.87283
309.89887
309.96747
309.98946
310.05926
310.0769
310.14867
310.16131
310.23621
310.24268
310.32231
304.23313
303.72698
304.81695
305.08634
305.62138
305.92551
306.23641
306.48622
306.71283
306.9022
307.08494
307.23785
307.38986
307.52008
307.64887
307.76364
307.87435
307.97793
308.07428
308.16951
308.25419
308.34308
308.41807
308.50209
308.56887
308.64913
308.70884
308.7862
308.83971
308.91485
308.96282
309.03633
309.07929
309.15166
309.18997
309.26165
309.29558
309.367
309.3967
309.46829
309.4938
309.56605
309.58727
309.66073
309.67737
309.75278
309.76429
309.84265
309.84822
309.93054
304.13846
303.62205
304.50319
304.71713
305.1954
305.4784
305.77563
306.02065
306.24418
306.43486
306.61814
306.7743
306.92815
307.06234
307.19337
307.31234
307.42531
307.5331
307.63155
307.73092
307.81746
307.91037
307.98697
308.07488
308.14299
308.22702
308.2878
308.36882
308.42313
308.50185
308.55038
308.62738
308.67065
308.74646
308.78484
308.85993
308.89371
308.96851
308.99783
309.0728
309.09772
309.17333
309.19377
309.27058
309.2863
309.36498
309.37554
309.45693
309.46182
309.54644
304.0581
303.57287
304.26205
304.42258
304.83492
305.09037
305.3665
305.60106
305.81655
306.00479
306.18507
306.34192
306.49501
306.63133
306.76263
306.88441
306.99812
307.10906
307.20841
307.31106
307.39851
307.49474
307.57215
307.66338
307.73219
307.81949
307.88081
307.96506
308.01974
308.10165
308.15038
308.23054
308.27382
308.35276
308.39098
308.46917
308.50261
308.58049
308.60932
308.68735
308.71162
308.79028
308.80994
308.88974
308.9046
308.98616
308.9959
309.07987
309.0843
309.17084
303.9882
303.55739
304.0805
304.1936
304.53664
304.76039
305.00958
305.22881
305.4318
305.61403
305.7879
305.94289
306.09263
306.22917
306.35875
306.48189
306.59476
306.7077
306.80669
306.9117
306.99904
307.09783
307.17524
307.26913
307.33796
307.42798
307.48928
307.57628
307.63087
307.71553
307.76407
307.84699
307.88998
307.97167
308.00949
308.09042
308.12335
308.20396
308.23217
308.31291
308.33647
308.4178
308.43668
308.51909
308.53315
308.61717
308.62624
308.71233
308.71643
308.80457
303.92586
303.55861
303.94584
304.01974
304.29513
304.48539
304.70375
304.90387
305.09063
305.26365
305.42803
305.57871
305.72265
305.85752
305.98343
306.10643
306.21691
306.33064
306.42802
306.53439
306.62061
306.72112
306.79769
306.89353
306.96168
307.05381
307.11451
307.20371
307.25774
307.34467
307.39264
307.47786
307.52025
307.60426
307.64144
307.7247
307.75694
307.83989
307.86736
307.95041
307.97319
308.05679
308.07488
308.15947
308.17281
308.25883
308.26734
308.35511
308.359
308.44837
303.86958
303.56527
303.84645
303.89026
304.1035
304.26068
304.44634
304.62484
304.79256
304.95373
305.10598
305.25015
305.38607
305.51747
305.63788
305.75927
305.86587
305.97917
306.07372
306.18043
306.2645
306.36587
306.44076
306.5378
306.60458
306.69816
306.75769
306.8485
306.90149
306.99014
307.03715
307.12418
307.16566
307.25153
307.28782
307.37297
307.40433
307.48918
307.51578
307.60072
307.62265
307.70809
307.72539
307.81171
307.82437
307.91194
307.91998
308.00898
308.01271
308.103
303.8181
303.57051
303.77252
303.79502
303.95409
304.0804
304.23344
304.38911
304.53599
304.68337
304.82142
304.95722
305.08322
305.20952
305.3228
305.44119
305.54252
305.6542
305.74475
305.85079
305.93175
306.03309
306.10548
306.20296
306.26768
306.36202
306.41981
306.51161
306.56308
306.6529
306.69856
306.78687
306.82712
306.91435
306.94951
307.03608
307.06637
307.15266
307.17827
307.26463
307.28566
307.37247
307.38897
307.47656
307.48857
307.57722
307.58485
307.67467
307.67827
307.76912
303.77088
303.57129
303.71621
303.72506
303.83912
303.93811
304.06017
304.19309
304.31837
304.45073
304.57316
304.69917
304.81374
304.93356
305.03833
305.15245
305.24729
305.35624
305.44175
305.54612
305.62307
305.72351
305.79264
305.88978
305.95179
306.04619
306.10169
306.19385
306.24335
306.33374
306.37768
306.46672
306.50543
306.59352
306.62729
306.71478
306.74383
306.83107
306.85556
306.94288
306.96292
307.05063
307.06631
307.15469
307.16608
307.25535
307.26261
307.35281
307.3563
307.44735
303.72737
303.56677
303.67164
303.67296
303.75126
303.82722
303.92117
304.03247
304.13636
304.25326
304.35931
304.47455
304.57665
304.68889
304.78405
304.89284
304.98017
305.08538
305.16493
305.26672
305.33885
305.43756
305.50274
305.59877
305.65748
305.75124
305.80394
305.89582
305.94292
306.0333
306.07514
306.16436
306.20125
306.28964
306.32181
306.4097
306.43734
306.52503
306.54829
306.63607
306.65506
306.74319
306.75801
306.84672
306.85749
306.94692
306.95382
307.044
307.04736
307.13826
303.68729
303.5576
303.63466
303.63297
303.68401
303.74147
303.81093
303.9026
303.98611
304.0878
304.17736
304.28135
304.37036
304.47426
304.55904
304.66164
304.74067
304.84129
304.91413
305.01252
305.07915
305.17536
305.23597
305.33018
305.38506
305.47751
305.52696
305.61792
305.66224
305.75199
305.79143
305.88026
305.91506
306.00323
306.03358
306.12136
306.14742
306.23506
306.25697
306.34471
306.36259
306.45064
306.46459
306.55314
306.56329
306.65243
306.65898
306.74873
306.75195
306.84233
303.65033
303.54496
303.60256
303.60085
303.63191
303.67523
303.72414
303.79869
303.86351
303.9508
304.02434
304.11704
304.19284
304.28796
304.36194
304.45772
304.52792
304.62325
304.68881
304.7831
304.84368
304.9367
304.99225
305.08397
305.13457
305.22508
305.27088
305.36033
305.40151
305.49009
305.52683
305.61472
305.64718
305.7346
305.76294
305.8501
305.87444
305.96153
305.98199
306.06921
306.0859
306.17341
306.18644
306.27438
306.28388
306.37231
306.37848
306.4674
306.47046
306.55996
303.61625
303.53008
303.57366
303.5737
303.5906
303.62368
303.65595
303.71616
303.76438
303.83855
303.89703
303.97882
304.04166
304.12789
304.19098
304.27957
304.34065
304.43018
304.4881
304.57772
304.63187
304.72111
304.77121
304.85985
304.90581
304.99381
305.03563
305.12301
305.16078
305.24762
305.28142
305.36785
305.39778
305.48394
305.5101
305.59613
305.61862
305.70468
305.7236
305.80982
305.82526
305.91177
305.92384
306.01072
306.01956
306.10686
306.11262
306.20035
306.20323
306.29147
303.58478
303.51403
303.54701
303.54964
303.5568
303.58289
303.60213
303.6508
303.68475
303.74737
303.7921
303.86368
303.91419
303.9917
304.0441
304.12536
304.17729
304.2607
304.31082
304.39533
304.44282
304.5278
304.5722
304.65727
304.69833
304.7833
304.82091
304.90571
304.93983
305.02446
305.05511
305.13959
305.16682
305.25123
305.27508
305.35952
305.38006
305.46462
305.48191
305.56669
305.58083
305.66589
305.67697
305.76238
305.77051
305.85629
305.86163
305.94778
305.95045
306.03709
303.55567
303.49755
303.52212
303.52756
303.52817
303.5498
303.55916
303.59891
303.62093
303.67373
303.70626
303.76857
303.80767
303.87687
303.91906
303.99306
304.03604
304.11319
304.15552
304.23466
304.27541
304.35578
304.39434
304.47543
304.51144
304.59296
304.62619
304.70797
304.7383
304.82025
304.84762
304.9297
304.9541
305.03633
305.05777
305.14017
305.15867
305.2413
305.25692
305.33982
305.35261
305.43582
305.44587
305.52942
305.53682
305.62071
305.62559
305.70982
305.71227
305.79695
303.52871
303.48119
303.49878
303.50684
303.50309
303.52216
303.52423
303.55735
303.56971
303.61441
303.6364
303.69054
303.71932
303.78083
303.81351
303.8805
303.91493
303.98584
304.0206
304.09423
304.12832
304.20383
304.23655
304.31336
304.34426
304.42199
304.45076
304.52915
304.5556
304.63448
304.6585
304.73778
304.75928
304.83892
304.85788
304.93785
304.95426
305.03457
305.04845
305.1291
305.1405
305.22149
305.23047
305.3118
305.31845
305.4001
305.40449
305.48648
305.48869
305.5711
303.50367
303.46521
303.47687
303.48722
303.48055
303.49834
303.49518
303.52358
303.52833
303.56656
303.57968
303.6268
303.64651
303.70106
303.72507
303.78548
303.81192
303.87675
303.90429
303.97241
304.00004
304.07058
304.09758
304.16991
304.19575
304.26942
304.29375
304.36844
304.39101
304.4665
304.48713
304.56327
304.58184
304.65855
304.67499
304.75218
304.76647
304.8441
304.85624
304.93428
304.94427
305.0227
305.0306
305.10938
305.11525
305.19436
305.19825
305.27768
305.27964
305.35948
303.48038
303.44978
303.45636
303.46857
303.45991
303.47726
303.47043
303.49562
303.49452
303.52775
303.5336
303.57484
303.58675
303.63515
303.65144
303.70578
303.72492
303.78398
303.80478
303.8675
303.88901
303.95456
303.97606
304.04379
304.06473
304.13416
304.15413
304.22491
304.24364
304.31549
304.33275
304.40549
304.42114
304.49461
304.50856
304.58266
304.59483
304.66948
304.67986
304.755
304.76358
304.83915
304.84596
304.92191
304.92698
305.00327
305.00664
305.08326
305.08495
305.16195
303.45868
303.43495
303.43719
303.45089
303.44081
303.45821
303.44885
303.47196
303.4665
303.49596
303.49601
303.53244
303.53781
303.58088
303.59047
303.63932
303.65193
303.70559
303.72022
303.77776
303.79357
303.85421
303.87052
303.93364
303.94989
304.015
304.03078
304.0975
304.1125
304.18052
304.19451
304.26362
304.27642
304.34642
304.3579
304.42867
304.43876
304.51018
304.51882
304.59079
304.59798
304.67043
304.67615
304.74902
304.7533
304.82652
304.82937
304.90293
304.90436
304.97828
303.43843
303.42074
303.41933
303.43418
303.42306
303.44074
303.42967
303.45151
303.44287
303.46958
303.46512
303.4977
303.49772
303.53626
303.54014
303.58413
303.59103
303.63971
303.64883
303.70146
303.71209
303.76798
303.77948
303.83804
303.84991
303.91067
303.92249
303.98507
303.99652
304.0606
304.07144
304.13676
304.14681
304.21317
304.22227
304.28951
304.29756
304.36555
304.37249
304.4411
304.44691
304.51604
304.5207
304.59027
304.59377
304.66372
304.66605
304.73635
304.73752
304.80815
303.4195
303.40715
303.40272
303.41845
303.40655
303.4246
303.41238
303.43349
303.42262
303.44736
303.43949
303.46903
303.46479
303.49954
303.49869
303.53842
303.54042
303.58461
303.58889
303.63696
303.64294
303.6943
303.70144
303.75558
303.7634
303.81988
303.82801
303.88644
303.89457
303.95464
303.96251
304.02396
304.03138
304.09398
304.1008
304.16438
304.17048
304.23488
304.2402
304.30527
304.30975
304.3754
304.37902
304.44514
304.44787
304.51439
304.51621
304.58308
304.584
304.65119
303.40179
303.39417
303.38731
303.40372
303.39124
303.40964
303.39668
303.41738
303.40499
303.42834
303.41797
303.44516
303.43761
303.46922
303.46455
303.50059
303.49851
303.53868
303.53881
303.58268
303.58458
303.63169
303.63494
303.68484
303.68901
303.74131
303.74607
303.8004
303.80546
303.86152
303.86664
303.92417
303.92915
303.98792
303.9926
304.05242
304.05669
304.11739
304.12116
304.1826
304.18581
304.24786
304.25048
304.31303
304.31501
304.37798
304.37932
304.44263
304.44331
304.50692
303.38522
303.3818
303.37305
303.39
303.3771
303.39581
303.38237
303.40284
303.38947
303.41183
303.3997
303.42506
303.41503
303.44407
303.43639
303.46927
303.46386
303.50046
303.49712
303.53717
303.53558
303.57873
303.57858
303.62446
303.62541
303.67367
303.67542
303.72575
303.72803
303.78014
303.78273
303.83637
303.83909
303.89402
303.89672
303.95275
303.9553
304.01226
304.01458
304.07232
304.07434
304.13271
304.13438
304.19329
304.19457
304.2539
304.25477
304.31445
304.31489
304.37485
303.36974
303.37006
303.35991
303.37728
303.36412
303.38305
303.36935
303.38965
303.37568
303.39732
303.38402
303.40795
303.39613
303.42305
303.41308
303.44328
303.43523
303.4687
303.46251
303.49911
303.49461
303.53411
303.53106
303.57317
303.57131
303.61574
303.61482
303.6613
303.6611
303.70936
303.70969
303.75949
303.76017
303.8113
303.81218
303.86444
303.86542
303.91863
303.91961
303.97362
303.97453
304.02921
304.03
304.08521
304.08584
304.14149
304.14192
304.19792
304.19814
304.2544
303.35529
303.35899
303.34789
303.36559
303.35231
303.37136
303.35754
303.37767
303.3634
303.38447
303.37043
303.39322
303.38017
303.40535
303.39371
303.42161
303.41155
303.44228
303.43383
303.46735
303.46046
303.49663
303.49116
303.52977
303.52552
303.56634
303.56313
303.60592
303.60357
303.64811
303.64644
303.6925
303.69137
303.73876
303.73803
303.78656
303.78612
303.83561
303.83538
303.88568
303.88559
303.93656
303.93655
303.98808
303.9881
304.04006
304.04009
304.0924
304.09242
304.14497
303.34189
303.34866
303.337
303.35494
303.34167
303.36073
303.3469
303.36683
303.35245
303.37303
303.3586
303.38045
303.36662
303.39034
303.37753
303.40347
303.39192
303.42026
303.41009
303.44085
303.43208
303.46522
303.45779
303.49316
303.48694
303.52437
303.51924
303.55854
303.55435
303.59533
303.59194
303.6344
303.63169
303.67545
303.6733
303.71818
303.71649
303.76233
303.76102
303.80767
303.80667
303.85399
303.85325
303.90113
303.90061
303.94892
303.94858
303.99722
303.99705
304.04593
303.32959
303.33918
303.32728
303.34537
303.3322
303.35117
303.33742
303.35707
303.34274
303.36283
303.34827
303.36928
303.35503
303.37749
303.36395
303.3882
303.37562
303.40186
303.39042
303.41874
303.40853
303.43893
303.42996
303.46236
303.45456
303.48885
303.48214
303.51816
303.51244
303.55004
303.5452
303.58422
303.58016
303.62042
303.61705
303.6584
303.65562
303.69791
303.69566
303.73874
303.73695
303.7807
303.77932
303.82361
303.82261
303.86732
303.86666
303.91169
303.91137
303.95661
303.31857
303.33067
303.31877
303.3369
303.3239
303.34267
303.32907
303.34835
303.33417
303.35376
303.33924
303.3595
303.34508
303.36644
303.35249
303.37526
303.36204
303.38642
303.37412
303.40025
303.38902
303.41693
303.40681
303.43649
303.42747
303.45885
303.45089
303.48386
303.4769
303.51132
303.5053
303.54104
303.53587
303.57279
303.56839
303.60636
303.60266
303.64152
303.63847
303.67809
303.67563
303.7159
303.71397
303.75477
303.75335
303.79455
303.79362
303.83512
303.83466
303.87637
303.30913
303.3233
303.31153
303.32957
303.31676
303.33522
303.32181
303.34064
303.32669
303.34572
303.33139
303.3509
303.33654
303.35688
303.3428
303.36424
303.35069
303.37342
303.3606
303.38476
303.37284
303.39852
303.38759
303.41479
303.40488
303.43358
303.42467
303.45479
303.44688
303.47833
303.47136
303.50403
303.49795
303.53172
303.52648
303.56121
303.55676
303.59234
303.58862
303.62493
303.62189
303.65882
303.65643
303.69385
303.69208
303.7299
303.72872
303.76682
303.76624
303.80452
303.30159
303.31721
303.30559
303.32335
303.31076
303.32879
303.31561
303.3339
303.32022
303.33865
303.32459
303.34337
303.3292
303.3486
303.33458
303.35481
303.34117
303.36241
303.34935
303.37175
303.35944
303.38309
303.37164
303.39659
303.38607
303.41231
303.40273
303.43023
303.42161
303.45029
303.44261
303.47239
303.46563
303.49641
303.49052
303.52219
303.51714
303.54961
303.54535
303.57849
303.575
303.60872
303.60595
303.64014
303.63809
303.67264
303.67128
303.7061
303.70542
303.7404
303.2962
303.31246
303.30093
303.31824
303.30585
303.32334
303.3104
303.32807
303.31471
303.33249
303.31877
303.33679
303.32292
303.34141
303.32761
303.34672
303.33319
303.35307
303.33999
303.36079
303.34832
303.37014
303.35842
303.38132
303.37043
303.39442
303.38442
303.40949
303.40039
303.4265
303.41833
303.44542
303.43815
303.46614
303.45977
303.48857
303.48306
303.51259
303.50792
303.53807
303.53421
303.56489
303.56183
303.59295
303.59066
303.62212
303.6206
303.6523
303.65154
303.68338
303.29293
303.30903
303.29747
303.31417
303.30195
303.3188
303.30612
303.32311
303.31009
303.32716
303.31382
303.33107
303.31759
303.33517
303.32171
303.33976
303.32648
303.34511
303.33217
303.35151
303.33909
303.35924
303.34746
303.36848
303.35744
303.37938
303.36915
303.392
303.38263
303.40637
303.39788
303.42247
303.41488
303.44027
303.43356
303.45967
303.45385
303.48061
303.47564
303.50297
303.49886
303.52667
303.52339
303.5516
303.54915
303.57767
303.57603
303.60477
303.60395
303.63282
303.29144
303.30675
303.29509
303.31102
303.29898
303.3151
303.3027
303.31894
303.30628
303.3226
303.30968
303.32613
303.31308
303.32978
303.31673
303.33376
303.32084
303.3383
303.32565
303.34364
303.33142
303.35003
303.33836
303.35767
303.34666
303.36671
303.35644
303.37724
303.36777
303.38933
303.38069
303.40298
303.3952
303.41818
303.41128
303.43489
303.42887
303.45305
303.4479
303.47259
303.4683
303.49343
303.49
303.51548
303.51291
303.53867
303.53695
303.5629
303.56204
303.58811
303.29118
303.30538
303.2936
303.30869
303.2968
303.31214
303.30003
303.31549
303.3032
303.31874
303.30626
303.3219
303.30931
303.32513
303.31255
303.3286
303.31612
303.33246
303.32021
303.33694
303.32504
303.34224
303.33081
303.34855
303.33771
303.35603
303.34585
303.36479
303.35535
303.37491
303.36626
303.38643
303.3786
303.39936
303.39238
303.41368
303.40756
303.42936
303.42411
303.44634
303.44196
303.46458
303.46107
303.484
303.48136
303.50454
303.50278
303.52612
303.52524
303.54868
303.29158
303.30465
303.2928
303.30701
303.29531
303.30982
303.29802
303.31268
303.30078
303.3155
303.30348
303.31829
303.3062
303.32114
303.30906
303.32415
303.31217
303.32746
303.31566
303.33121
303.31972
303.33561
303.32453
303.34082
303.33026
303.347
303.33704
303.35426
303.34497
303.3627
303.35415
303.37237
303.36461
303.38332
303.37636
303.39553
303.38942
303.409
303.40374
303.4237
303.4193
303.43959
303.43606
303.45662
303.45396
303.47473
303.47296
303.49388
303.49298
303.51399
303.29222
303.30432
303.29251
303.30585
303.29437
303.30805
303.29658
303.31041
303.29891
303.31282
303.30127
303.31524
303.30366
303.31772
303.30617
303.32033
303.30887
303.32315
303.31186
303.32631
303.31528
303.32995
303.31929
303.33425
303.32405
303.33934
303.32968
303.34533
303.3363
303.35234
303.34399
303.36043
303.35281
303.36965
303.36281
303.38001
303.37398
303.39154
303.38633
303.4042
303.39983
303.41798
303.41447
303.43284
303.4302
303.44875
303.44698
303.46566
303.46477
303.48353
303.29285
303.30419
303.29256
303.30506
303.29385
303.30671
303.29559
303.30861
303.29753
303.31062
303.29954
303.31269
303.30162
303.31482
303.3038
303.31705
303.30613
303.31944
303.30868
303.32208
303.31156
303.3251
303.31491
303.32863
303.31885
303.33281
303.32352
303.33774
303.32902
303.34353
303.33544
303.35025
303.34286
303.35798
303.35132
303.36674
303.36084
303.37654
303.37144
303.3874
303.38312
303.3993
303.39585
303.41222
303.40962
303.42613
303.42439
303.44101
303.44014
303.45682
303.29341
303.30415
303.29281
303.30455
303.29366
303.30571
303.29498
303.30719
303.29654
303.30883
303.29823
303.31055
303.3
303.31235
303.30187
303.31424
303.30387
303.31625
303.30603
303.31844
303.30844
303.32092
303.31122
303.3238
303.31448
303.32721
303.31834
303.33124
303.32289
303.33599
303.32823
303.34156
303.33444
303.348
303.34157
303.35536
303.34966
303.36366
303.35872
303.37292
303.36877
303.38315
303.3798
303.39433
303.3918
303.40646
303.40476
303.4195
303.41865
303.43343
303.29387
303.30413
303.29318
303.3042
303.29368
303.30497
303.29465
303.30608
303.29588
303.30738
303.29725
303.30878
303.29873
303.31026
303.30031
303.31182
303.30199
303.31348
303.3038
303.31527
303.30581
303.31729
303.3081
303.31962
303.31078
303.32237
303.31395
303.32564
303.3177
303.32952
303.32212
303.33409
303.32729
303.33943
303.33327
303.34557
303.3401
303.35257
303.34782
303.36043
303.35643
303.36918
303.36595
303.37882
303.37638
303.38934
303.3877
303.40072
303.3999
303.41296
303.29426
303.30409
303.2936
303.30396
303.29385
303.30442
303.29452
303.30521
303.29546
303.3062
303.29655
303.3073
303.29775
303.30848
303.29905
303.30973
303.30043
303.31106
303.30192
303.3125
303.30357
303.31411
303.30544
303.31596
303.30762
303.31816
303.3102
303.32078
303.31326
303.32391
303.3169
303.32764
303.32118
303.33203
303.32617
303.33713
303.33192
303.34298
303.33846
303.34963
303.34581
303.35708
303.35399
303.36534
303.36301
303.37443
303.37286
303.38434
303.38355
303.39504
303.29458
303.30403
303.29402
303.30378
303.29411
303.304
303.29455
303.30453
303.29523
303.30524
303.29606
303.30606
303.297
303.30695
303.29802
303.30791
303.29913
303.30893
303.30032
303.31004
303.30163
303.31129
303.30313
303.31273
303.30488
303.31445
303.30695
303.31652
303.30943
303.31902
303.3124
303.32202
303.31592
303.32559
303.32006
303.3298
303.32487
303.33467
303.33038
303.34025
303.33662
303.34656
303.34363
303.35362
303.3514
303.36144
303.35995
303.37002
303.36927
303.37936
303.29485
303.30394
303.29442
303.30362
303.29441
303.30367
303.29467
303.30398
303.29514
303.30444
303.29573
303.305
303.29642
303.30562
303.29718
303.3063
303.29802
303.30704
303.29892
303.30784
303.29993
303.30876
303.30109
303.30984
303.30246
303.31114
303.3041
303.31273
303.30608
303.31469
303.30847
303.31708
303.31135
303.31996
303.31475
303.32339
303.31874
303.32741
303.32336
303.33206
303.32864
303.33738
303.33461
303.34338
303.34128
303.35008
303.34867
303.35748
303.35677
303.3656
303.29507
303.30381
303.29479
303.30346
303.29473
303.30338
303.29485
303.30351
303.29513
303.30376
303.2955
303.30408
303.29595
303.30444
303.29646
303.30485
303.29704
303.30531
303.29768
303.30583
303.2984
303.30645
303.29926
303.3072
303.30029
303.30814
303.30155
303.30932
303.3031
303.31082
303.305
303.31268
303.30731
303.31496
303.31009
303.31773
303.31338
303.32102
303.31723
303.32487
303.32167
303.32932
303.32673
303.3344
303.33243
303.34011
303.33879
303.34648
303.34581
303.3535
303.29525
303.30365
303.29513
303.30328
303.29503
303.30312
303.29505
303.3031
303.29516
303.30315
303.29533
303.30324
303.29555
303.30336
303.29582
303.30351
303.29614
303.30371
303.29652
303.30396
303.29699
303.3043
303.29757
303.30476
303.29829
303.30538
303.29922
303.30621
303.30039
303.3073
303.30187
303.30871
303.3037
303.31049
303.30593
303.31269
303.30862
303.31535
303.31181
303.31851
303.31552
303.32221
303.31979
303.32648
303.32464
303.33133
303.33009
303.33678
303.33616
303.34284
303.29538
303.30346
303.29542
303.30309
303.2953
303.30287
303.29525
303.30272
303.29521
303.30258
303.29518
303.30245
303.29517
303.30233
303.2952
303.30223
303.29528
303.30217
303.29542
303.30218
303.29563
303.30226
303.29595
303.30245
303.29641
303.30279
303.29704
303.3033
303.29788
303.30405
303.29899
303.30508
303.30041
303.30642
303.30218
303.30814
303.30435
303.31026
303.30696
303.31283
303.31004
303.31588
303.31362
303.31945
303.31773
303.32354
303.32239
303.32819
303.32761
303.3334
303.29547
303.30325
303.29566
303.30288
303.29554
303.3026
303.29541
303.30233
303.29522
303.30201
303.295
303.30166
303.29477
303.3013
303.29456
303.30096
303.2944
303.30067
303.29431
303.30043
303.29429
303.30028
303.29437
303.30023
303.29458
303.30031
303.29495
303.30056
303.29551
303.30101
303.2963
303.3017
303.29736
303.30268
303.29874
303.30398
303.30047
303.30564
303.30258
303.30771
303.30512
303.3102
303.3081
303.31315
303.31156
303.31659
303.31553
303.32054
303.32
303.325
303.29553
303.30301
303.29586
303.30265
303.29574
303.30231
303.29553
303.30191
303.29518
303.3014
303.29475
303.30083
303.2943
303.30024
303.29386
303.29967
303.29347
303.29914
303.29315
303.29868
303.29291
303.29831
303.29278
303.29804
303.29277
303.2979
303.2929
303.29791
303.29321
303.2981
303.29373
303.29851
303.29449
303.29917
303.29552
303.30012
303.29687
303.3014
303.29856
303.30302
303.30063
303.30504
303.3031
303.30747
303.306
303.31034
303.30935
303.31367
303.31318
303.31749
303.29554
303.30276
303.29602
303.30239
303.29588
303.30199
303.29557
303.30143
303.29505
303.30072
303.2944
303.29992
303.29373
303.2991
303.29306
303.2983
303.29245
303.29756
303.29192
303.2969
303.29148
303.29632
303.29114
303.29586
303.29093
303.29551
303.29086
303.29532
303.29095
303.29529
303.29123
303.29546
303.29173
303.29585
303.29247
303.2965
303.29349
303.29744
303.29482
303.2987
303.29649
303.30031
303.29851
303.30229
303.30093
303.30467
303.30376
303.30747
303.30701
303.31071
303.29551
303.30249
303.29613
303.3021
303.29597
303.3016
303.29552
303.30087
303.29479
303.29994
303.29392
303.29891
303.29301
303.29786
303.29213
303.29684
303.29131
303.29589
303.29057
303.29504
303.28994
303.29428
303.28942
303.29364
303.28903
303.29312
303.28878
303.29274
303.28868
303.29252
303.28876
303.29248
303.28903
303.29265
303.28953
303.29305
303.29027
303.29371
303.29129
303.29466
303.29261
303.29592
303.29426
303.29751
303.29626
303.29947
303.29863
303.30181
303.30139
303.30456
303.29545
303.30222
303.29619
303.30179
303.29597
303.30115
303.29535
303.30019
303.29439
303.29901
303.29327
303.29774
303.29212
303.29647
303.29102
303.29524
303.29
303.29411
303.28908
303.29307
303.28828
303.29215
303.2876
303.29135
303.28705
303.29068
303.28664
303.29015
303.28638
303.28977
303.28628
303.28956
303.28636
303.28954
303.28665
303.28973
303.28716
303.29015
303.28792
303.29083
303.28895
303.29179
303.29027
303.29306