/*--------------------------------*- C++ -*----------------------------------*\
| =========                 |                                                 |
| \\      /  F ield         | OpenFOAM: The Open Source CFD Toolbox           |
|  \\    /   O peration     | Version:  2312                                  |
|   \\  /    A nd           | Website:  www.openfoam.com                      |
|    \\/     M anipulation  |                                                 |
\*---------------------------------------------------------------------------*/
FoamFile
{
    version     2.0;
    format      ascii;
    arch        "LSB;label=32;scalar=64";
    class       surfaceScalarField;
    location    "2";
    object      phi;
}
// * * * * * * * * * * * * * * * * * * * * * * * * * * * * * * * * * * * * * //

dimensions      [0 3 -1 0 0 0 0];

oriented        oriented;

internalField   nonuniform List<scalar> 
7870
(
1.3072092e-10
2.8175291e-09
1.3347023e-10
-2.7493021e-12
1.1285072e-10
2.0619506e-11
1.1388945e-10
-1.0387306e-12
1.1436251e-10
-4.7305993e-13
1.1283988e-10
1.5226327e-12
1.1382699e-10
-9.8711156e-13
1.126234e-10
1.2035839e-12
1.137249e-10
-1.1015017e-12
1.1263966e-10
1.085247e-12
1.1366523e-10
-1.0255696e-12
1.1268242e-10
9.8281005e-13
1.1361211e-10
-9.2968867e-13
1.1272655e-10
8.8555762e-13
1.1356608e-10
-8.3953408e-13
1.1276755e-10
7.9853497e-13
1.1352598e-10
-7.5843267e-13
1.1280444e-10
7.215384e-13
1.1349075e-10
-6.8630859e-13
1.1283726e-10
6.5349154e-13
1.1345971e-10
-6.2244563e-13
1.128663e-10
5.9340695e-13
1.1343235e-10
-5.6604326e-13
1.1289192e-10
5.4043011e-13
1.1340826e-10
-5.1634489e-13
1.1291445e-10
4.9381235e-13
1.1338711e-10
-4.7265906e-13
1.1293421e-10
4.5289627e-13
1.1336859e-10
-4.3437594e-13
1.1295148e-10
4.1710672e-13
1.1335244e-10
-4.0096067e-13
1.1296649e-10
3.8594617e-13
1.1333845e-10
-3.7195105e-13
1.1297946e-10
3.589853e-13
1.1332641e-10
-3.4695254e-13
1.1299055e-10
3.3586104e-13
1.1331618e-10
-3.2562892e-13
1.1299991e-10
3.1626542e-13
1.1330761e-10
-3.0769999e-13
1.1300767e-10
2.9994156e-13
1.1330061e-10
-2.9293424e-13
1.1301393e-10
2.8668165e-13
1.1329506e-10
-2.8113578e-13
1.1301872e-10
2.763383e-13
1.1329085e-10
-2.7213002e-13
1.1302217e-10
2.6868733e-13
1.1328878e-10
-2.666161e-13
1.1302835e-10
2.6042755e-13
1.1330151e-10
-2.7315318e-13
2.5271472e-13
3.5073652e-10
5.4150425e-09
3.8100561e-10
-3.3018379e-11
3.3015988e-10
7.1465221e-11
3.3067417e-10
-1.5530154e-12
3.3094974e-10
-7.4862666e-13
3.2850828e-10
3.9640856e-12
3.2951565e-10
-1.9944731e-12
3.2777517e-10
2.9440547e-12
3.2930948e-10
-2.6358081e-12
3.2774972e-10
2.6450057e-12
3.2922207e-10
-2.4979226e-12
3.2780023e-10
2.4046517e-12
3.2914161e-10
-2.2710676e-12
3.2786017e-10
2.1670043e-12
3.2907325e-10
-2.0526176e-12
3.2791818e-10
1.9536144e-12
3.2901469e-10
-1.8549464e-12
3.2797111e-10
1.7651233e-12
3.2896364e-10
-1.6788435e-12
3.2801842e-10
1.5987166e-12
3.2891879e-10
-1.5228211e-12
3.2806036e-10
1.451845e-12
3.2887931e-10
-1.3849918e-12
3.2809737e-10
1.3223639e-12
3.2884456e-10
-1.2635293e-12
3.2812995e-10
1.2084207e-12
3.2881403e-10
-1.1567438e-12
3.2815853e-10
1.1084006e-12
3.287873e-10
-1.063149e-12
3.2818351e-10
1.0208972e-12
3.2876399e-10
-9.8143825e-13
3.2820524e-10
9.4469516e-13
3.2874377e-10
-9.1048313e-13
3.2822401e-10
8.7874565e-13
3.2872638e-10
-8.4932399e-13
3.2824008e-10
8.2216665e-13
3.2871159e-10
-7.9713942e-13
3.2825365e-10
7.7420585e-13
3.2869919e-10
-7.5324698e-13
3.282649e-10
7.3423736e-13
3.2868905e-10
-7.170855e-13
3.2827398e-10
7.0175359e-13
3.2868101e-10
-6.8816977e-13
3.2828093e-10
6.7641633e-13
3.286748e-10
-6.6599978e-13
3.2828572e-10
6.5776902e-13
3.2867163e-10
-6.5252599e-13
3.2829661e-10
6.354524e-13
3.2870303e-10
-6.7957648e-13
6.1789274e-13
5.6590464e-10
7.7973879e-09
6.1567483e-10
-8.278856e-11
5.4121078e-10
1.4592926e-10
5.4204915e-10
-2.3913742e-12
5.4157122e-10
-2.7070134e-13
5.3891539e-10
6.6199088e-12
5.3932468e-10
-2.4037632e-12
5.3769556e-10
4.5731737e-12
5.3907316e-10
-4.0134051e-12
5.3761173e-10
4.1064392e-12
5.3899314e-10
-3.8793384e-12
5.3764509e-10
3.7527032e-12
5.3891252e-10
-3.5384943e-12
5.3769685e-10
3.382672e-12
5.3884543e-10
-3.2011872e-12
5.3775017e-10
3.0488747e-12
5.3878919e-10
-2.8939708e-12
5.3779978e-10
2.7545404e-12
5.3874069e-10
-2.6197501e-12
5.3784442e-10
2.4949857e-12
5.3869824e-10
-2.3766467e-12
5.3788408e-10
2.2660051e-12
5.3866092e-10
-2.1618308e-12
5.3791913e-10
2.0641621e-12
5.3862809e-10
-1.9724942e-12
5.3794999e-10
1.8865268e-12
5.3859925e-10
-1.8060038e-12
5.3797707e-10
1.7305758e-12
5.3857397e-10
-1.6600489e-12
5.3800076e-10
1.5941096e-12
5.3855191e-10
-1.5325958e-12
5.3802137e-10
1.4752389e-12
5.3853277e-10
-1.4218871e-12
5.3803919e-10
1.3723306e-12
5.385163e-10
-1.3264359e-12
5.3805445e-10
1.2840159e-12
5.3850227e-10
-1.2449614e-12
5.3806735e-10
1.2091275e-12
5.3849051e-10
-1.1764064e-12
5.3807806e-10
1.1466888e-12
5.3848088e-10
-1.1199006e-12
5.3808672e-10
1.095911e-12
5.3847322e-10
-1.0746759e-12
5.3809334e-10
1.0562992e-12
5.3846717e-10
-1.039829e-12
5.3809768e-10
1.0272601e-12
5.3846404e-10
-1.0188852e-12
5.3811097e-10
9.8851769e-13
5.3851145e-10
-1.0800503e-12
9.641158e-13
7.581089e-10
9.987529e-09
8.3941864e-10
-1.6409829e-10
7.4643952e-10
2.3890837e-10
7.4768303e-10
-3.634875e-12
7.4657727e-10
8.3505188e-13
7.4370401e-10
9.4931733e-12
7.4357929e-10
-2.2790422e-12
7.4207976e-10
6.0726966e-12
7.4330731e-10
-5.240954e-12
7.4195138e-10
5.4623765e-12
7.4324013e-10
-5.1680912e-12
7.4197022e-10
5.0226134e-12
7.4316036e-10
-4.7286317e-12
7.4201426e-10
4.5287718e-12
7.4309496e-10
-4.2818828e-12
7.4206286e-10
4.0809743e-12
7.430413e-10
-3.8724075e-12
7.4210902e-10
3.6868197e-12
7.4299549e-10
-3.5062186e-12
7.4215084e-10
3.3396341e-12
7.4295557e-10
-3.1813761e-12
7.421881e-10
3.0334777e-12
7.4292052e-10
-2.8942456e-12
7.4222105e-10
2.763631e-12
7.4288968e-10
-2.6411264e-12
7.4225008e-10
2.5261257e-12
7.4286258e-10
-2.4184996e-12
7.4227558e-10
2.3175754e-12
7.4283882e-10
-2.2232892e-12
7.4229789e-10
2.1350391e-12
7.4281807e-10
-2.0527795e-12
7.4231731e-10
1.9759954e-12
7.4280005e-10
-1.9046249e-12
7.4233412e-10
1.8382631e-12
7.4278453e-10
-1.7768508e-12
7.4234852e-10
1.7200257e-12
7.4277131e-10
-1.6677447e-12
7.4236071e-10
1.6197239e-12
7.427602e-10
-1.5758995e-12
7.4237084e-10
1.5360558e-12
7.427511e-10
-1.5001612e-12
7.4237904e-10
1.4679649e-12
7.4274385e-10
-1.4394844e-12
7.4238532e-10
1.4148302e-12
7.4273798e-10
-1.3924845e-12
7.423892e-10
1.3760422e-12
7.4273465e-10
-1.3643396e-12
7.4240385e-10
1.3193149e-12
7.4279437e-10
-1.470566e-12
1.2908361e-12
9.5854059e-10
1.1977238e-08
1.0533764e-09
-2.5893406e-10
9.4556265e-10
3.4672207e-10
9.4762324e-10
-5.6954573e-12
9.4594363e-10
2.51466e-12
9.4285497e-10
1.2581837e-11
9.4227554e-10
-1.6996168e-12
9.4092793e-10
7.420307e-12
9.4201175e-10
-6.3247774e-12
9.4076831e-10
6.7058229e-12
9.4196274e-10
-6.3625212e-12
9.4077515e-10
6.2102049e-12
9.4188485e-10
-5.8383378e-12
9.4081194e-10
5.6016922e-12
9.4182161e-10
-5.2915547e-12
9.4085584e-10
5.0467496e-12
9.4177079e-10
-4.7873572e-12
9.4089845e-10
4.5591563e-12
9.4172785e-10
-4.3356188e-12
9.4093734e-10
4.1301455e-12
9.4169059e-10
-3.9346252e-12
9.4097209e-10
3.7519858e-12
9.4165791e-10
-3.5800675e-12
9.4100284e-10
3.4186994e-12
9.4162916e-10
-3.2674456e-12
9.4102997e-10
3.1253197e-12
9.4160388e-10
-2.9924172e-12
9.410538e-10
2.8676606e-12
9.4158171e-10
-2.7511999e-12
9.4107467e-10
2.6420811e-12
9.4156233e-10
-2.5404472e-12
9.4109285e-10
2.4454792e-12
9.4154549e-10
-2.3572664e-12
9.4110859e-10
2.275165e-12
9.4153098e-10
-2.1992375e-12
9.4112209e-10
2.1289077e-12
9.4151859e-10
-2.0642434e-12
9.4113353e-10
2.0047898e-12
9.4150818e-10
-1.950558e-12
9.4114304e-10
1.9012023e-12
9.4149964e-10
-1.8567634e-12
9.4115077e-10
1.8168399e-12
9.4149283e-10
-1.7815466e-12
9.4115668e-10
1.7509767e-12
9.4148717e-10
-1.7229719e-12
9.4116009e-10
1.7031248e-12
9.4148355e-10
-1.6878046e-12
9.4117543e-10
1.627439e-12
9.4155249e-10
-1.8476317e-12
1.5954477e-12
1.1335985e-09
1.379189e-08
1.2548814e-09
-3.8021697e-10
1.1389029e-09
4.6270058e-10
1.1419505e-09
-8.7430222e-12
1.1396336e-09
4.8315833e-12
1.1363675e-09
1.5847951e-11
1.1354114e-09
-7.4359658e-13
1.1342408e-09
8.5909247e-12
1.1351874e-09
-7.271349e-12
1.1340624e-09
7.8307802e-12
1.1351615e-09
-7.4616149e-12
1.1340597e-09
7.3120543e-12
1.1350864e-09
-6.8651053e-12
1.1340897e-09
6.5984779e-12
1.1350258e-09
-6.2276492e-12
1.1341289e-09
5.9436221e-12
1.134978e-09
-5.6364577e-12
1.1341679e-09
5.3692621e-12
1.1349381e-09
-5.1058001e-12
1.1342037e-09
4.8644607e-12
1.1349036e-09
-4.634435e-12
1.1342359e-09
4.4196592e-12
1.1348733e-09
-4.2175075e-12
1.1342644e-09
4.0276566e-12
1.1348467e-09
-3.8498113e-12
1.1342895e-09
3.6825415e-12
1.1348233e-09
-3.5262453e-12
1.1343116e-09
3.3793815e-12
1.1348028e-09
-3.2423867e-12
1.134331e-09
3.1138969e-12
1.1347849e-09
-2.9943074e-12
1.1343479e-09
2.8824484e-12
1.1347692e-09
-2.7786117e-12
1.1343625e-09
2.6818782e-12
1.1347558e-09
-2.5924772e-12
1.1343751e-09
2.509583e-12
1.1347442e-09
-2.4334117e-12
1.1343857e-09
2.3633105e-12
1.1347346e-09
-2.2993958e-12
1.1343946e-09
2.2411734e-12
1.1347266e-09
-2.1887765e-12
1.1344018e-09
2.1416306e-12
1.1347203e-09
-2.0999816e-12
1.1344074e-09
2.0638749e-12
1.1347148e-09
-2.0304651e-12
1.1344103e-09
2.0076785e-12
1.1347109e-09
-1.9884164e-12
1.1344258e-09
1.9125653e-12
1.1347863e-09
-2.2081842e-12
1.8757151e-12
1.3132009e-09
1.5426939e-08
1.4486006e-09
-5.1561669e-10
1.3264461e-09
5.8485506e-10
1.3305514e-09
-1.2848308e-11
1.3276129e-09
7.7700594e-12
1.3242437e-09
1.921722e-11
1.3229872e-09
5.1286089e-13
1.32202e-09
9.5581355e-12
1.3228354e-09
-8.0867585e-12
1.3218336e-09
8.8325621e-12
1.322837e-09
-8.4649855e-12
1.3218235e-09
8.3255546e-12
1.3227655e-09
-7.8071188e-12
1.3218471e-09
7.5168649e-12
1.3227077e-09
-7.088252e-12
1.3218817e-09
6.7696265e-12
1.3226632e-09
-6.4179197e-12
1.321917e-09
6.1153921e-12
1.3226264e-09
-5.8151196e-12
1.3219498e-09
5.5410018e-12
1.3225947e-09
-5.2792992e-12
1.3219793e-09
5.0350543e-12
1.322567e-09
-4.8051792e-12
1.3220055e-09
4.5891756e-12
1.3225426e-09
-4.3869432e-12
1.3220286e-09
4.1965592e-12
1.3225211e-09
-4.0188002e-12
1.3220489e-09
3.8516015e-12
1.3225023e-09
-3.6957486e-12
1.3220667e-09
3.549426e-12
1.3224858e-09
-3.4133347e-12
1.3220823e-09
3.2859132e-12
1.3224714e-09
-3.1677024e-12
1.3220958e-09
3.057479e-12
1.322459e-09
-2.9556721e-12
1.3221074e-09
2.8611806e-12
1.3224484e-09
-2.7744041e-12
1.3221172e-09
2.6944691e-12
1.3224394e-09
-2.6216192e-12
1.3221254e-09
2.5551965e-12
1.3224321e-09
-2.4954487e-12
1.3221321e-09
2.4416068e-12
1.3224262e-09
-2.3940761e-12
1.3221373e-09
2.3528246e-12
1.3224211e-09
-2.3143e-12
1.3221397e-09
2.2890304e-12
1.3224168e-09
-2.2655048e-12
1.322155e-09
2.1744423e-12
1.3224963e-09
-2.5495759e-12
2.130213e-12
1.4796033e-09
1.6895586e-08
1.6289326e-09
-6.6494599e-10
1.5082217e-09
7.0556593e-10
1.5133313e-09
-1.7957825e-11
1.5098504e-09
1.1250893e-11
1.5064873e-09
2.2580341e-11
1.5050003e-09
1.9998385e-12
1.5042638e-09
1.0294641e-11
1.5049555e-09
-8.7784154e-12
1.5040811e-09
9.706936e-12
1.5049893e-09
-9.3731635e-12
1.5040662e-09
9.2486508e-12
1.5049223e-09
-8.6632388e-12
1.504084e-09
8.3551788e-12
1.5048678e-09
-7.8720271e-12
1.5041141e-09
7.5233377e-12
1.5048266e-09
-7.130461e-12
1.5041457e-09
6.7962791e-12
1.504793e-09
-6.4623846e-12
1.5041754e-09
6.1586132e-12
1.5047642e-09
-5.8681098e-12
1.5042021e-09
5.5971047e-12
1.504739e-09
-5.3420524e-12
1.5042259e-09
5.1022634e-12
1.5047169e-09
-4.8778811e-12
1.504247e-09
4.6664517e-12
1.5046974e-09
-4.4691822e-12
1.5042655e-09
4.2834518e-12
1.5046802e-09
-4.1104453e-12
1.5042818e-09
3.9478578e-12
1.5046652e-09
-3.7967409e-12
1.504296e-09
3.6551127e-12
1.5046521e-09
-3.5237986e-12
1.5043083e-09
3.4012491e-12
1.5046408e-09
-3.2881259e-12
1.5043189e-09
3.1830284e-12
1.5046311e-09
-3.0865659e-12
1.5043279e-09
2.9976267e-12
1.5046229e-09
-2.9166047e-12
1.5043354e-09
2.8426679e-12
1.5046162e-09
-2.7761896e-12
1.5043416e-09
2.716193e-12
1.5046108e-09
-2.6632706e-12
1.5043463e-09
2.6172781e-12
1.504606e-09
-2.5739598e-12
1.5043484e-09
2.5466451e-12
1.5046014e-09
-2.5185687e-12
1.504363e-09
2.4128974e-12
1.5046829e-09
-2.8695278e-12
2.3581469e-12
1.6361814e-09
1.8207654e-08
1.8014309e-09
-8.3019552e-10
1.6839161e-09
8.2308079e-10
1.689372e-09
-2.3413745e-11
1.6862862e-09
1.4336662e-11
1.6831265e-09
2.574006e-11
1.6814762e-09
3.650191e-12
1.6809843e-09
1.0786471e-11
1.6815538e-09
-9.3478574e-12
1.680807e-09
1.0453747e-11
1.6816197e-09
-1.0185869e-11
1.6807879e-09
1.0080447e-11
1.6815573e-09
-9.432659e-12
1.6808001e-09
9.1123603e-12
1.6815062e-09
-8.5781073e-12
1.6808257e-09
8.2038155e-12
1.6814685e-09
-7.7732396e-12
1.6808537e-09
7.4110774e-12
1.6814381e-09
-7.046794e-12
1.6808802e-09
6.7165133e-12
1.6814122e-09
-6.4001101e-12
1.6809042e-09
6.1050761e-12
1.6813896e-09
-5.8274115e-12
1.6809256e-09
5.5662292e-12
1.6813697e-09
-5.3219475e-12
1.6809446e-09
5.0915585e-12
1.6813522e-09
-4.8767529e-12
1.6809613e-09
4.6743153e-12
1.6813367e-09
-4.48587e-12
1.680976e-09
4.3086034e-12
1.6813232e-09
-4.1439517e-12
1.6809888e-09
3.9894885e-12
1.6813114e-09
-3.8463558e-12
1.681e-09
3.7126627e-12
1.6813012e-09
-3.5893225e-12
1.6810096e-09
3.4746217e-12
1.6812924e-09
-3.3694051e-12
1.6810177e-09
3.272309e-12
1.681285e-09
-3.1838901e-12
1.6810245e-09
3.1031354e-12
1.6812789e-09
-3.0305589e-12
1.6810301e-09
2.9649626e-12
1.681274e-09
-2.9071469e-12
1.6810345e-09
2.8568252e-12
1.6812696e-09
-2.8090637e-12
1.6810361e-09
2.7801211e-12
1.6812648e-09
-2.7472568e-12
1.6810499e-09
2.6278261e-12
1.6813464e-09
-3.166096e-12
2.559174e-12
1.7932911e-09
1.9362613e-08
1.962066e-09
-9.9897037e-10
1.8541674e-09
9.3097937e-10
1.8580107e-09
-2.7257032e-11
1.8565807e-09
1.5766697e-11
1.8540889e-09
2.8231864e-11
1.8523865e-09
5.3525001e-12
1.8521697e-09
1.1003272e-11
1.8526256e-09
-9.8037559e-12
1.8520088e-09
1.1070639e-11
1.8527275e-09
-1.0904583e-11
1.8519879e-09
1.0820014e-11
1.8526705e-09
-1.0115296e-11
1.8519952e-09
9.7877377e-12
1.8526232e-09
-9.2061138e-12
1.8520165e-09
8.8105337e-12
1.852589e-09
-8.3458176e-12
1.8520408e-09
7.9593167e-12
1.8525619e-09
-7.567904e-12
1.8520642e-09
7.2142543e-12
1.8525389e-09
-6.87486e-12
1.8520855e-09
6.5585347e-12
1.8525189e-09
-6.2608257e-12
1.8521045e-09
5.980648e-12
1.8525012e-09
-5.7187224e-12
1.8521213e-09
5.4714738e-12
1.8524857e-09
-5.2411017e-12
1.8521362e-09
5.0237893e-12
1.852472e-09
-4.8216287e-12
1.8521493e-09
4.6312791e-12
1.8524599e-09
-4.4545878e-12
1.8521607e-09
4.2886722e-12
1.8524494e-09
-4.1350104e-12
1.8521707e-09
3.9913629e-12
1.8524403e-09
-3.8589144e-12
1.8521793e-09
3.7356262e-12
1.8524325e-09
-3.6225928e-12
1.8521866e-09
3.5181913e-12
1.8524258e-09
-3.4231564e-12
1.8521927e-09
3.3362919e-12
1.8524204e-09
-3.2582542e-12
1.8521977e-09
3.1876208e-12
1.852416e-09
-3.1254195e-12
1.8522016e-09
3.0711883e-12
1.8524119e-09
-3.0193573e-12
1.8522029e-09
2.989176e-12
1.852407e-09
-2.9513566e-12
1.8522156e-09
2.8192042e-12
1.8524871e-09
-3.4376449e-12
2.7333063e-12
1.93008e-09
2.0380783e-08
2.1158423e-09
-1.1847327e-09
2.018723e-09
1.0280986e-09
2.0206323e-09
-2.9166262e-11
2.0209564e-09
1.5442613e-11
2.0194484e-09
2.9739811e-11
2.0177609e-09
7.0399887e-12
2.017832e-09
1.0932148e-11
2.0181767e-09
-1.0148406e-11
2.0176886e-09
1.1558718e-11
2.018314e-09
-1.1529918e-11
2.0176665e-09
1.1467466e-11
2.0182625e-09
-1.0711263e-11
2.017669e-09
1.0381179e-11
2.0182189e-09
-9.756027e-12
2.0176861e-09
9.3433682e-12
2.0181884e-09
-8.8481119e-12
2.0177069e-09
8.4408715e-12
2.0181645e-09
-8.0255898e-12
2.0177271e-09
7.6516955e-12
2.0181445e-09
-7.2922085e-12
2.0177457e-09
6.9573207e-12
2.018127e-09
-6.6421243e-12
2.0177623e-09
6.3453479e-12
2.0181116e-09
-6.0680214e-12
2.017777e-09
5.8060059e-12
2.018098e-09
-5.5620391e-12
2.0177901e-09
5.331686e-12
2.018086e-09
-5.1175244e-12
2.0178016e-09
4.9156886e-12
2.0180754e-09
-4.7284513e-12
2.0178116e-09
4.5524665e-12
2.0180662e-09
-4.389566e-12
2.0178204e-09
4.2371595e-12
2.0180582e-09
-4.0967089e-12
2.017828e-09
3.9658483e-12
2.0180513e-09
-3.8459385e-12
2.0178344e-09
3.7350925e-12
2.0180455e-09
-3.6342264e-12
2.0178398e-09
3.5419616e-12
2.0180407e-09
-3.459105e-12
2.0178443e-09
3.3840048e-12
2.0180368e-09
-3.3179273e-12
2.0178478e-09
3.2602105e-12
2.0180331e-09
-3.2047055e-12
2.0178486e-09
3.1736486e-12
2.0180281e-09
-3.1307804e-12
2.0178602e-09
2.9870764e-12
2.0181054e-09
-3.6828276e-12
2.8808467e-12
2.0834887e-09
2.1245544e-08
2.257429e-09
-1.3586731e-09
2.1764511e-09
1.1090765e-09
2.179079e-09
-3.1794118e-11
2.1798148e-09
1.4706849e-11
2.1793074e-09
3.0247145e-11
2.1776272e-09
8.7202572e-12
2.1779763e-09
1.0583048e-11
2.1782077e-09
-1.0379835e-11
2.177846e-09
1.1920416e-11
2.178379e-09
-1.206293e-11
2.1778233e-09
1.2023177e-11
2.1783332e-09
-1.1221168e-11
2.1778215e-09
1.0892894e-11
2.1782937e-09
-1.022822e-11
2.1778345e-09
9.8025352e-12
2.1782668e-09
-9.2803705e-12
2.1778517e-09
8.8559242e-12
2.1782462e-09
-8.4200221e-12
2.1778689e-09
8.0289718e-12
2.1782289e-09
-7.6522672e-12
2.1778847e-09
7.3015247e-12
2.178214e-09
-6.9713749e-12
2.177899e-09
6.6603775e-12
2.1782008e-09
-6.3698771e-12
2.1779116e-09
6.0951819e-12
2.1781892e-09
-5.8395667e-12
2.1779229e-09
5.5979967e-12
2.1781789e-09
-5.3735416e-12
2.1779328e-09
5.1618111e-12
2.1781698e-09
-4.9655116e-12
2.1779414e-09
4.7808386e-12
2.1781619e-09
-4.6099822e-12
2.177949e-09
4.4500069e-12
2.178155e-09
-4.3026595e-12
2.1779556e-09
4.1652459e-12
2.178149e-09
-4.0393964e-12
2.1779612e-09
3.9229617e-12
2.178144e-09
-3.8170472e-12
2.1779658e-09
3.7200968e-12
2.1781398e-09
-3.6330616e-12
2.1779697e-09
3.5540662e-12
2.1781364e-09
-3.4846261e-12
2.1779728e-09
3.4238523e-12
2.1781332e-09
-3.3650846e-12
2.1779733e-09
3.3334829e-12
2.1781281e-09
-3.2855575e-12
2.1779836e-09
3.1315695e-12
2.1782014e-09
-3.9005652e-12
3.0023365e-12
2.2045925e-09
2.1989202e-08
2.391819e-09
-1.5458996e-09
2.3284608e-09
1.1724347e-09
2.3328433e-09
-3.617662e-11
2.3330796e-09
1.4470589e-11
2.333624e-09
2.9702724e-11
2.3319662e-09
1.0378038e-11
2.3325955e-09
9.9537762e-12
2.3327162e-09
-1.0500542e-11
2.3324798e-09
1.2156836e-11
2.3329225e-09
-1.2505604e-11
2.332458e-09
1.2487655e-11
2.3328829e-09
-1.1646067e-11
2.3324524e-09
1.1323415e-11
2.3328475e-09
-1.0623399e-11
2.3324615e-09
1.0188562e-11
2.3328243e-09
-9.6431368e-12
2.3324753e-09
9.2049393e-12
2.3328069e-09
-8.7516347e-12
2.3324894e-09
8.3464729e-12
2.3327925e-09
-7.9553888e-12
2.3325026e-09
7.5914658e-12
2.33278e-09
-7.2488632e-12
2.3325144e-09
6.9260006e-12
2.3327691e-09
-6.6245204e-12
2.332525e-09
6.3392058e-12
2.3327594e-09
-6.0738761e-12
2.3325345e-09
5.8228986e-12
2.3327507e-09
-5.589833e-12
2.3325428e-09
5.3697859e-12
2.3327432e-09
-5.1658942e-12
2.3325501e-09
4.9739025e-12
2.3327365e-09
-4.7963628e-12
2.3325565e-09
4.6300054e-12
2.3327307e-09
-4.476854e-12
2.332562e-09
4.3338964e-12
2.3327257e-09
-4.2030391e-12
2.3325667e-09
4.0818742e-12
2.3327214e-09
-3.9716912e-12
2.3325707e-09
3.8707645e-12
2.3327178e-09
-3.7801911e-12
2.332574e-09
3.6978746e-12
2.332715e-09
-3.6255817e-12
2.3325767e-09
3.5621806e-12
2.3327122e-09
-3.5005759e-12
2.3325769e-09
3.4687324e-12
2.3327072e-09
-3.415822e-12
2.3325859e-09
3.2528759e-12
2.3327753e-09
-4.0900297e-12
3.0985077e-12
2.3544166e-09
2.2583035e-08
2.5186584e-09
-1.7101413e-09
2.4746747e-09
1.2164183e-09
2.4811544e-09
-4.2656303e-11
2.480843e-09
1.4782002e-11
2.4824225e-09
2.8123179e-11
2.4807955e-09
1.2005132e-11
2.4816991e-09
9.0501269e-12
2.4817073e-09
-1.0508763e-11
2.4815921e-09
1.227205e-11
2.4819454e-09
-1.2858935e-11
2.4815708e-09
1.2862293e-11
2.4819118e-09
-1.1987092e-11
2.4815615e-09
1.1673696e-11
2.4818807e-09
-1.094253e-11
2.481567e-09
1.050228e-11
2.481861e-09
-9.9372158e-12
2.4815774e-09
9.4886375e-12
2.4818468e-09
-9.0211049e-12
2.4815885e-09
8.6048166e-12
2.4818352e-09
-8.2021438e-12
2.481599e-09
7.8276723e-12
2.4818252e-09
-7.4750744e-12
2.4816086e-09
7.1426639e-12
2.4818164e-09
-6.8323658e-12
2.4816172e-09
6.5384712e-12
2.4818086e-09
-6.2653184e-12
2.4816248e-09
6.0067183e-12
2.4818017e-09
-5.7667062e-12
2.4816315e-09
5.5399033e-12
2.4817955e-09
-5.3298678e-12
2.4816375e-09
5.1319143e-12
2.4817901e-09
-4.9489468e-12
2.4816427e-09
4.7773785e-12
2.4817854e-09
-4.6195077e-12
2.4816472e-09
4.472012e-12
2.4817813e-09
-4.3370677e-12
2.4816511e-09
4.2120182e-12
2.4817778e-09
-4.0983385e-12
2.4816544e-09
3.9941447e-12
2.4817749e-09
-3.9006659e-12
2.4816571e-09
3.8155988e-12
2.4817725e-09
-3.7409629e-12
2.4816593e-09
3.6753661e-12
2.4817701e-09
-3.6113584e-12
2.4816593e-09
3.579543e-12
2.4817653e-09
-3.521808e-12
2.4816669e-09
3.3512678e-12
2.4818275e-09
-4.2506259e-12
3.1702433e-12
2.4655997e-09
2.3065686e-08
2.6407699e-09
-1.8853115e-09
2.6154955e-09
1.2416927e-09
2.6233192e-09
-5.0479962e-11
2.6231958e-09
1.4905411e-11
2.6256804e-09
2.5638567e-11
2.6241109e-09
1.3574553e-11
2.6252864e-09
7.874688e-12
2.6251813e-09
-1.0403706e-11
2.625183e-09
1.2270347e-11
2.6254482e-09
-1.3124086e-11
2.6251617e-09
1.3148815e-11
2.6254202e-09
-1.2245654e-11
2.6251489e-09
1.1944978e-11
2.6253933e-09
-1.118684e-11
2.6251508e-09
1.0744775e-11
2.6253772e-09
-1.0163653e-11
2.6251579e-09
9.7079722e-12
2.6253661e-09
-9.2293263e-12
2.6251661e-09
8.8048327e-12
2.6253572e-09
-8.3933039e-12
2.625174e-09
8.0108634e-12
2.6253497e-09
-7.6506769e-12
2.6251813e-09
7.3109976e-12
2.6253429e-09
-6.9939949e-12
2.6251879e-09
6.6935174e-12
2.625337e-09
-6.4144093e-12
2.6251938e-09
6.1499442e-12
2.6253317e-09
-5.9046131e-12
2.625199e-09
5.6725901e-12
2.625327e-09
-5.4578361e-12
2.6252036e-09
5.2552559e-12
2.6253228e-09
-5.0680974e-12
2.6252077e-09
4.8924783e-12
2.6253191e-09
-4.7309517e-12
2.6252112e-09
4.5799056e-12
2.6253159e-09
-4.4417841e-12
2.6252143e-09
4.3136933e-12
2.6253132e-09
-4.1972804e-12
2.6252168e-09
4.0905173e-12
2.6253109e-09
-3.9947618e-12
2.625219e-09
3.9075127e-12
2.6253091e-09
-3.8310354e-12
2.6252208e-09
3.7636724e-12
2.6253071e-09
-3.6977036e-12
2.6252205e-09
3.6661594e-12
2.6253025e-09
-3.6038376e-12
2.6252267e-09
3.4270779e-12
2.6253581e-09
-4.381976e-12
3.2185419e-12
2.6089037e-09
2.3405032e-08
2.7590133e-09
-2.0354211e-09
2.751099e-09
1.249607e-09
2.7590147e-09
-5.8395655e-11
2.760182e-09
1.3738065e-11
2.7634026e-09
2.241802e-11
2.7619213e-09
1.5055809e-11
2.7633616e-09
6.4343858e-12
2.7631408e-09
-1.0182819e-11
2.7632537e-09
1.2157402e-11
2.7634314e-09
-1.3301792e-11
2.7632307e-09
1.3349486e-11
2.7634084e-09
-1.2423274e-11
2.7632145e-09
1.2138836e-11
2.7633854e-09
-1.1357762e-11
2.7632128e-09
1.0917388e-11
2.7633729e-09
-1.0323704e-11
2.7632167e-09
9.864111e-12
2.7633648e-09
-9.3773929e-12
2.7632221e-09
8.9475413e-12
2.7633586e-09
-8.5298221e-12
2.7632275e-09
8.1419344e-12
2.7633534e-09
-7.776507e-12
2.7632326e-09
7.4317845e-12
2.7633487e-09
-7.1101455e-12
2.7632372e-09
6.805049e-12
2.7633446e-09
-6.5217978e-12
2.7632413e-09
6.2531891e-12
2.7633409e-09
-6.0041382e-12
2.7632451e-09
5.7684036e-12
2.7633375e-09
-5.5503255e-12
2.7632484e-09
5.344433e-12
2.7633346e-09
-5.1542952e-12
2.7632513e-09
4.9757617e-12
2.763332e-09
-4.8116287e-12
2.7632539e-09
4.6580111e-12
2.7633297e-09
-4.517605e-12
2.7632561e-09
4.3872965e-12
2.7633277e-09
-4.2689007e-12
2.7632579e-09
4.1602619e-12
2.763326e-09
-4.0628461e-12
2.7632596e-09
3.9739759e-12
2.7633247e-09
-3.8961556e-12
2.7632609e-09
3.8274552e-12
2.7633232e-09
-3.7599688e-12
2.7632604e-09
3.7289069e-12
2.7633189e-09
-3.6623183e-12
2.7632653e-09
3.4807142e-12
2.7633672e-09
-4.4839035e-12
3.2444881e-12
2.721183e-09
2.3632099e-08
2.8740502e-09
-2.1882882e-09
2.8818104e-09
1.2418468e-09
2.8886092e-09
-6.5194488e-11
2.8918678e-09
1.0479479e-11
2.8955952e-09
1.8690686e-11
2.8942293e-09
1.6421625e-11
2.8959223e-09
4.7414223e-12
2.8955836e-09
-9.8441236e-12
2.8958026e-09
1.1938438e-11
2.8958943e-09
-1.3393488e-11
2.8957774e-09
1.3466412e-11
2.895876e-09
-1.2521959e-11
2.8957579e-09
1.2256932e-11
2.8958572e-09
-1.1457017e-11
2.895753e-09
1.1021627e-11
2.8958481e-09
-1.0418843e-11
2.8957538e-09
9.9584033e-12
2.895843e-09
-9.4665831e-12
2.8957564e-09
9.0341373e-12
2.8958394e-09
-8.6128211e-12
2.8957594e-09
8.22194e-12
2.8958365e-09
-7.8535556e-12
2.8957623e-09
7.5059643e-12
2.8958338e-09
-7.1816969e-12
2.895765e-09
6.8738904e-12
2.8958315e-09
-6.5882759e-12
2.8957674e-09
6.3172078e-12
2.8958293e-09
-6.0659898e-12
2.8957697e-09
5.8280182e-12
2.8958273e-09
-5.6079795e-12
2.8957717e-09
5.4000588e-12
2.8958255e-09
-5.2081282e-12
2.8957735e-09
5.0277992e-12
2.895824e-09
-4.8620814e-12
2.8957751e-09
4.7068461e-12
2.8958225e-09
-4.5650324e-12
2.8957765e-09
4.4333232e-12
2.8958213e-09
-4.3136822e-12
2.8957777e-09
4.2038448e-12
2.8958203e-09
-4.1053778e-12
2.8957788e-09
4.0154414e-12
2.8958194e-09
-3.9367644e-12
2.8957797e-09
3.867151e-12
2.8958183e-09
-3.7985923e-12
2.895779e-09
3.7681998e-12
2.8958144e-09
-3.6977317e-12
2.8957825e-09
3.5126385e-12
2.895855e-09
-4.5564199e-12
3.2492267e-12
2.8614672e-09
2.3718882e-08
2.9857435e-09
-2.3125645e-09
3.0076359e-09
1.2199544e-09
3.0130654e-09
-7.062399e-11
3.0183157e-09
5.229092e-12
3.0222975e-09
1.4708906e-11
3.021056e-09
1.7663117e-11
3.02297e-09
2.8274704e-12
3.0225108e-09
-9.3848898e-12
3.0228296e-09
1.161959e-11
3.0228367e-09
-1.3400592e-11
3.0228012e-09
1.3501879e-11
3.0228233e-09
-1.2543987e-11
3.0227791e-09
1.2301097e-11
3.0228086e-09
-1.1486558e-11
3.0227711e-09
1.1059175e-11
3.022803e-09
-1.0450736e-11
3.022769e-09
9.9923644e-12
3.0228008e-09
-9.4983489e-12
3.022769e-09
9.0659702e-12
3.0227997e-09
-8.6435776e-12
3.0227696e-09
8.2520821e-12
3.022799e-09
-7.8829564e-12
3.0227703e-09
7.5346037e-12
3.0227983e-09
-7.2096617e-12
3.0227712e-09
6.9010112e-12
3.0227977e-09
-6.6147474e-12
3.022772e-09
6.342858e-12
3.022797e-09
-6.0909905e-12
3.0227728e-09
5.8522209e-12
3.0227964e-09
-5.6315473e-12
3.0227736e-09
5.422855e-12
3.0227957e-09
-5.2302864e-12
3.0227743e-09
5.0492501e-12
3.0227952e-09
-4.8829504e-12
3.022775e-09
4.7270377e-12
3.0227946e-09
-4.5846706e-12
3.0227756e-09
4.4523529e-12
3.0227941e-09
-4.3321868e-12
3.0227761e-09
4.2218199e-12
3.0227936e-09
-4.1228946e-12
3.0227766e-09
4.0324357e-12
3.0227932e-09
-3.9533824e-12
3.0227771e-09
3.8832771e-12
3.0227926e-09
-3.8140871e-12
3.0227763e-09
3.7845217e-12
3.0227892e-09
-3.7106325e-12
3.0227785e-09
3.523383e-12
3.0228217e-09
-4.5997093e-12
3.2339412e-12
2.9747624e-09
2.3692369e-08
3.0929708e-09
-2.430773e-09
3.1283355e-09
1.1845897e-09
3.1331295e-09
-7.5417947e-11
3.139647e-09
-1.2883988e-12
3.1435481e-09
1.0807732e-11
3.142438e-09
1.8773296e-11
3.1445087e-09
7.5672283e-13
3.1439258e-09
-8.8019904e-12
3.1443364e-09
1.120902e-11
3.1442596e-09
-1.3323764e-11
3.1443027e-09
1.3458778e-11
3.1442503e-09
-1.2491646e-11
3.144278e-09
1.2273437e-11
3.1442399e-09
-1.1448467e-11
3.1442672e-09
1.1031907e-11
3.1442376e-09
-1.0421205e-11
3.1442623e-09
9.9676745e-12
3.1442383e-09
-9.4742883e-12
3.1442597e-09
9.0445399e-12
3.1442396e-09
-8.6235095e-12
3.144258e-09
8.2336981e-12
3.144241e-09
-7.8659733e-12
3.1442567e-09
7.5189052e-12
3.1442422e-09
-7.1951729e-12
3.1442558e-09
6.8874792e-12
3.1442433e-09
-6.6022411e-12
3.144255e-09
6.3311234e-12
3.1442441e-09
-6.0800695e-12
3.1442544e-09
5.8418995e-12
3.1442447e-09
-5.6218792e-12
3.1442539e-09
5.413635e-12
3.1442452e-09
-5.2215527e-12
3.1442536e-09
5.0408745e-12
3.1442456e-09
-4.8749621e-12
3.1442534e-09
4.7192817e-12
3.1442459e-09
-4.5771959e-12
3.1442532e-09
4.4450512e-12
3.1442461e-09
-4.3250641e-12
3.1442531e-09
4.2148161e-12
3.1442462e-09
-4.116015e-12
3.1442531e-09
4.0255684e-12
3.1442463e-09
-3.9466039e-12
3.1442531e-09
3.8764203e-12
3.1442461e-09
-3.8070367e-12
3.1442522e-09
3.7784358e-12
3.1442432e-09
-3.701637e-12
3.144253e-09
3.5135259e-12
3.1442674e-09
-4.6141178e-12
3.1998343e-12
3.1090372e-09
2.3531582e-08
3.1964656e-09
-2.5182014e-09
3.2438535e-09
1.1372018e-09
3.2487758e-09
-8.0340263e-11
3.2557144e-09
-8.2269784e-12
3.259328e-09
7.1940977e-12
3.2583866e-09
1.9714726e-11
3.2605284e-09
-1.3851243e-12
3.2598268e-09
-8.1003334e-12
3.2603222e-09
1.0713623e-11
3.2601626e-09
-1.3164196e-11
3.2602814e-09
1.3339999e-11
3.2601572e-09
-1.236747e-11
3.2602544e-09
1.2176203e-11
3.260151e-09
-1.1345008e-11
3.260241e-09
1.0941848e-11
3.2601521e-09
-1.0332223e-11
3.2602336e-09
9.8861539e-12
3.2601554e-09
-9.3961446e-12
3.2602285e-09
8.971476e-12
3.2601592e-09
-8.5541641e-12
3.2602246e-09
8.1682498e-12
3.2601626e-09
-7.8039916e-12
3.2602214e-09
7.460177e-12
3.2601657e-09
-7.1394776e-12
3.2602187e-09
6.8344908e-12
3.2601683e-09
-6.551879e-12
3.2602163e-09
6.2830723e-12
3.2601705e-09
-6.0342543e-12
3.2602144e-09
5.7980391e-12
3.2601724e-09
-5.579917e-12
3.2602128e-09
5.3733073e-12
3.260174e-09
-5.1827984e-12
3.2602114e-09
5.0035073e-12
3.2601753e-09
-4.8389288e-12
3.2602102e-09
4.6843727e-12
3.2601764e-09
-4.5433759e-12
3.2602093e-09
4.4121561e-12
3.2601773e-09
-4.2930306e-12
3.2602086e-09
4.183539e-12
3.260178e-09
-4.0854253e-12
3.260208e-09
3.9955106e-12
3.2601785e-09
-3.9170921e-12
3.2602077e-09
3.8472384e-12
3.2601787e-09
-3.7780894e-12
3.2602066e-09
3.7505644e-12
3.2601764e-09
-3.6714238e-12
3.2602062e-09
3.4837101e-12
3.2601922e-09
-4.6001382e-12
3.1481137e-12
3.2206393e-09
2.3259193e-08
3.2958863e-09
-2.5934484e-09
3.3543047e-09
1.0787835e-09
3.3595055e-09
-8.5541099e-11
3.3663736e-09
-1.5095028e-11
3.3696118e-09
3.9558707e-12
3.3689002e-09
2.0426351e-11
3.3710176e-09
-3.5026166e-12
3.370211e-09
-7.2936487e-12
3.3707863e-09
1.0138252e-11
3.3705457e-09
-1.2923579e-11
3.3707373e-09
1.3148436e-11
3.370544e-09
-1.2174202e-11
3.3707084e-09
1.2011787e-11
3.370542e-09
-1.1178584e-11
3.3706927e-09
1.0791169e-11
3.3705464e-09
-1.0185901e-11
3.3706828e-09
9.7497578e-12
3.3705524e-09
-9.2657833e-12
3.3706753e-09
8.8485345e-12
3.3705584e-09
-8.4372086e-12
3.3706693e-09
8.0573136e-12
3.3705638e-09
-7.6985074e-12
3.3706642e-09
7.3598453e-12
3.3705686e-09
-7.0439254e-12
3.3706598e-09
6.743322e-12
3.3705728e-09
-6.4648935e-12
3.370656e-09
6.199885e-12
3.3705764e-09
-5.9546643e-12
3.3706527e-09
5.7217116e-12
3.3705795e-09
-5.5066901e-12
3.37065e-09
5.3028587e-12
3.3705821e-09
-5.1149753e-12
3.3706476e-09
4.9380728e-12
3.3705844e-09
-4.7757365e-12
3.3706456e-09
4.623161e-12
3.3705862e-09
-4.4840377e-12
3.3706439e-09
4.3544813e-12
3.3705878e-09