/*--------------------------------*- C++ -*----------------------------------*\
| =========                 |                                                 |
| \\      /  F ield         | OpenFOAM: The Open Source CFD Toolbox           |
|  \\    /   O peration     | Version:  2312                                  |
|   \\  /    A nd           | Website:  www.openfoam.com                      |
|    \\/     M anipulation  |                                                 |
\*---------------------------------------------------------------------------*/
FoamFile
{
    version     2.0;
    format      ascii;
    arch        "LSB;label=32;scalar=64";
    class       volScalarField;
    location    "2";
    object      T;
}
// * * * * * * * * * * * * * * * * * * * * * * * * * * * * * * * * * * * * * //

dimensions      [0 0 0 1 0 0 0];

internalField   nonuniform List<scalar> 
4000
(
310.51917
311.79578
311.99423
312.07702
312.1348
312.189
312.23064
312.27486
312.30988
312.34933
312.38128
312.41784
312.44806
312.48267
312.51179
312.54501
312.5734
312.60557
312.63345
312.6648
312.69231
312.72301
312.75024
312.78039
312.80739
312.83707
312.86386
312.89311
312.9197
312.94854
312.97492
313.00337
313.02953
313.0576
313.08355
313.11125
313.137
313.16436
313.1899
313.21696
313.24232
313.26913
313.29431
313.32093
313.34594
313.37243
313.39724
313.42375
313.4482
313.47536
308.30557
310.50203
311.03813
311.23446
311.35569
311.46615
311.53909
311.61967
311.67274
311.73903
311.7829
311.84053
311.8792
311.93098
311.96638
312.01397
312.04718
312.09163
312.1233
312.16531
312.19586
312.23592
312.26562
312.30405
312.33306
312.37008
312.39846
312.4342
312.46197
312.49649
312.52364
312.55698
312.58351
312.6157
312.64158
312.67268
312.69794
312.72803
312.75269
312.78188
312.80598
312.83441
312.85798
312.88582
312.90887
312.93636
312.95881
312.98633
313.00769
313.03708
306.89644
309.24848
310.0892
310.396
310.57964
310.74552
310.84961
310.96608
311.03723
311.13005
311.18591
311.26436
311.31157
311.38034
311.42209
311.48391
311.52201
311.57861
311.61414
311.6667
311.70037
311.74968
311.78192
311.82854
311.85962
311.90391
311.93395
311.97613
312.00516
312.04532
312.07334
312.11155
312.13853
312.17484
312.20076
312.23527
312.26015
312.29297
312.31686
312.34819
312.37114
312.4012
312.42326
312.45235
312.47353
312.50203
312.52218
312.55074
312.56908
312.60045
305.94016
308.07234
309.15916
309.56787
309.81107
310.03032
310.16491
310.31624
310.40534
310.52402
310.59189
310.6907
310.74651
310.83189
310.88009
310.95584
310.99892
311.06744
311.10693
311.16982
311.20669
311.26508
311.29995
311.35461
311.38785
311.43929
311.47109
311.5196
311.55001
311.59574
311.62475
311.66778
311.69536
311.73577
311.76188
311.79979
311.82446
311.86003
311.88332
311.9168
311.93876
311.97049
311.99119
312.02155
312.04098
312.07052
312.0885
312.11809
312.13356
312.16659
305.26196
307.00647
308.26322
308.75875
309.05603
309.32498
309.48867
309.67311
309.77972
309.92317
310.00292
310.12131
310.18574
310.28714
310.34186
310.43106
310.47922
310.55926
310.6028
310.67571
310.71588
310.78308
310.82067
310.88314
310.91866
310.97704
311.01073
311.06541
311.09734
311.14851
311.17868
311.22645
311.25481
311.29926
311.32578
311.36706
311.39174
311.43005
311.45295
311.48861
311.50979
311.5432
311.56273
311.59441
311.61227
311.64288
311.65884
311.68947
311.7023
311.7366
304.76548
306.07339
307.41769
307.97896
308.32191
308.63504
308.82539
309.04035
309.16358
309.33022
309.42151
309.55838
309.6313
309.74791
309.80912
309.91114
309.96441
310.05545
310.10311
310.1856
310.22915
310.30479
310.34521
310.41517
310.45306
310.51813
310.55382
310.61445
310.64805
310.70449
310.736
310.78837
310.81772
310.86614
310.89328
310.93789
310.96282
311.00387
311.02663
311.06447
311.08512
311.12024
311.13884
311.17185
311.18837
311.22006
311.23422
311.26587
311.27634
311.31155
304.39391
305.28571
306.63783
307.23956
307.61688
307.96675
308.18021
308.42219
308.56063
308.74836
308.85053
309.00444
309.08554
309.21629
309.28385
309.39786
309.45621
309.55758
309.60938
309.7009
309.74787
309.83148
309.87479
309.95184
309.9922
310.0636
310.10141
310.16771
310.20312
310.26461
310.29762
310.35443
310.38499
310.43724
310.46526
310.51312
310.53857
310.5823
310.6052
310.64522
310.66561
310.70246
310.72039
310.75475
310.77018
310.80297
310.81558
310.84822
310.85668
310.89247
304.11086
304.64478
305.93579
306.55123
306.94933
307.32677
307.55863
307.82324
307.97491
308.18108
308.29313
308.46229
308.55104
308.69461
308.76825
308.89323
308.9565
309.06739
309.12326
309.22313
309.27353
309.36453
309.41075
309.49442
309.53729
309.61463
309.65464
309.72626
309.7636
309.82984
309.86453
309.92556
309.95752
310.01344
310.04257
310.09357
310.11981
310.16618
310.1895
310.23167
310.25209
310.29067
310.30821
310.34395
310.35855
310.39246
310.4038
310.43738
310.44421
310.4803
303.89179
304.14291
305.31955
305.92315
306.32716
306.72169
306.96625
307.24832
307.41062
307.63207
307.75265
307.9349
308.03053
308.18536
308.26462
308.39936
308.4673
308.58675
308.64653
308.75397
308.8077
308.90544
308.95455
309.04425
309.08966
309.17243
309.21469
309.29122
309.33059
309.40124
309.43775
309.50271
309.53626
309.59564
309.62611
309.68011
309.70739
309.7563
309.78032
309.8246
309.84534
309.88564
309.90308
309.94021
309.95428
309.98931
309.99967
310.03413
310.03973
310.07595
303.71946
303.76519
304.79218
305.36207
305.75708
306.15759
306.4084
306.70212
306.87195
307.10509
307.23247
307.42535
307.52684
307.69111
307.77537
307.91849
307.99068
308.11759
308.18103
308.29513
308.35204
308.45577
308.50766
308.60276
308.65066
308.73831
308.78284
308.86379
308.90524
308.9799
309.01832
309.08688
309.12217
309.18477
309.21677
309.27358
309.30214
309.35346
309.37844
309.42477
309.4461
309.48811
309.50573
309.54426
309.55807
309.59423
309.60393
309.63922
309.64396
309.68019
303.58138
303.49232
304.35225
304.87168
305.2441
305.63956
305.88985
306.18901
306.36286
306.60374
306.7359
306.93667
307.04277
307.21448
307.30291
307.45286
307.52878
307.66191
307.72865
307.8484
307.90824
308.01711
308.07163
308.1714
308.22169
308.3136
308.36034
308.44518
308.48872
308.56692
308.60732
308.6791
308.71625
308.78175
308.81545
308.87484
308.90487
308.95847
308.98464
309.03293
309.05511
309.09877
309.11684
309.15676
309.1706
309.20789
309.21722
309.25331
309.25754
309.29377
303.46844
303.30311
303.99427
304.45239
304.79114
305.17135
305.41443
305.71276
305.88688
306.13135
306.266
306.47174
306.58098
306.75796
306.84959
307.0047
307.08367
307.22168
307.29125
307.41556
307.47799
307.59107
307.64799
307.75164
307.80416
307.89965
307.94851
308.03664
308.08222
308.16345
308.20584
308.28041
308.31949
308.38753
308.42305
308.48475
308.51642
308.57209
308.59966
308.64979
308.67303
308.7183
308.73707
308.77835
308.79248
308.83089
308.84014
308.877
308.88102
308.91729
303.37405
303.17686
303.7098
304.1016
304.39888
304.75516
304.98486
305.27633
305.44691
305.69079
305.8255
306.03318
306.14394
306.3239
306.41762
306.57611
306.65733
306.7988
306.87062
306.99832
307.06293
307.17924
307.23824
307.34493
307.39946
307.49778
307.54861
307.63939
307.68692
307.77062
307.81497
307.89184
307.93286
308.00305
308.04045
308.10416
308.13758
308.19511
308.22421
308.27605
308.30054
308.34734
308.367
308.40962
308.42427
308.46379
308.47321
308.51085
308.5149
308.55133
303.29338
303.09484
303.48853
303.81423
304.06574
304.39143
304.60252
304.88167
305.04509
305.2843
305.41662
305.6232
305.73377
305.9144
306.00898
306.16902
306.2516
306.39505
306.46846
306.59832
306.66462
306.78312
306.84383
306.95267
307.00893
307.10931
307.1619
307.25463
307.30397
307.38954
307.43575
307.51441
307.55733
307.62925
307.66854
307.73392
307.76914
307.82828
307.85901
307.91238
307.93825
307.98647
308.0072
308.05112
308.06648
308.10709
308.11692
308.15533
308.15961
308.19634
303.22313
303.04174
303.31952
303.58341
303.78814
304.07892
304.26742
304.52962
304.68264
304.91346
305.04099
305.24356
305.3522
305.5312
305.62536
305.78511
305.86809
306.01202
306.08629
306.21705
306.28448
306.4041
306.4661
306.57616
306.63382
306.73545
306.78954
306.88352
306.93447
307.02128
307.06921
307.14911
307.19384
307.26703
307.30816
307.37483
307.41186
307.47233
307.50473
307.55943
307.58676
307.63629
307.6582
307.70335
307.71958
307.76127
307.77167
307.8109
307.81555
307.85273
303.16087
303.00575
303.19206
303.40123
303.56097
303.81488
303.97824
304.21992
304.35987
304.57902
304.6996
304.89545
305.00048
305.17565
305.2681
305.42576
305.50815
305.65107
305.72543
305.85583
305.92377
306.04346
306.10626
306.2166
306.27529
306.37734
306.43263
306.52712
306.57945
306.66684
306.71631
306.79688
306.84328
306.91724
306.96012
307.02769
307.06646
307.12795
307.16201
307.21782
307.24664
307.29734
307.3205
307.36679
307.384
307.42675
307.43784
307.47792
307.48302
307.52084
303.10507
302.97871
303.09642
303.2594
303.37812
303.59534
303.73248
303.95124
304.07613
304.28094
304.39272
304.57947
304.67933
304.84865
304.93815
305.09202
305.17282
305.31328
305.38693
305.51576
305.58357
305.70225
305.76534
305.87505
305.93433
306.03599
306.09214
306.1864
306.23984
306.32715
306.37793
306.45859
306.50647
306.58071
306.62518
306.69324
306.73364
306.79581
306.83145
306.88814
306.91841
306.97012
306.99454
307.04189
307.06012
307.10389
307.11575
307.15673
307.16233
307.20094
303.05457
302.95537
303.02425
303.14993
303.23301
303.41549
303.52669
303.7213
303.82992
304.01841
304.11992
304.29558
304.38894
304.55061
304.63601
304.78452
304.86279
304.99944
305.0716
305.19766
305.26472
305.38135
305.44421
305.55236
305.61182
305.71226
305.76892
305.86222
305.91644
306.00303
306.05485
306.13502
306.18414
306.25816
306.30402
306.37214
306.414
306.47653
306.51362
306.57093
306.60257
306.6551
306.68074
306.72904
306.74829
306.79305
306.8057
306.84761
306.85372
306.89325
303.00862
302.93287
302.96877
303.06553
303.11908
303.27001
303.35675
303.52708
303.61899
303.7899
303.88014
304.04317
304.12895
304.28147
304.36176
304.50354
304.57839
304.70999
304.77991
304.90213
304.96779
305.08141
305.1435
305.24923
305.30841
305.40685
305.46363
305.55528
305.60996
305.69517
305.74774
305.82685
305.87696
305.95024
305.99725
306.06501
306.10812
306.17066
306.20903
306.26668
306.29955
306.3527
306.37947
306.42859
306.44882
306.4945
306.50793
306.5508
306.55738
306.59794
302.96667
302.90993
302.92479
302.99997
303.03018
303.15352
303.21813
303.36502
303.4405
303.59328
303.67172
303.82106
303.89847
304.04066
304.11502
304.24891
304.31958
304.44506
304.51206
304.62943
304.6931
304.80281
304.86362
304.96613
305.02458
305.12029
305.17681
305.26611
305.32091
305.40415
305.45715
305.53464
305.58544
305.65751
305.7054
305.77238
305.81648
305.87868
305.9181
305.97582
306.00974
306.0633
306.09107
306.14087
306.16197
306.20851
306.22264
306.26648
306.27349
306.31514
302.92831
302.88633
302.88856
302.94817
302.96083
303.06084
303.10624
303.23126
303.29119
303.42595
303.49253
303.62762
303.69618
303.8272
303.89502
304.02011
304.08596
304.20442
304.26789
304.37958
304.4407
304.54572
304.60476
304.7033
304.7606
304.8529
304.90877
304.99512
305.04968
305.13037
305.18348
305.25884
305.31001
305.38041
305.42887
305.49467
305.53948
305.60099
305.6412
305.69871
305.73346
305.78722
305.8158
305.86612
305.88797
305.93526
305.95
305.99478
306.00216
306.04492
302.89319
302.86236
302.8575
302.90617
302.90635
302.98723
303.01661
303.12186
303.16762
303.28501
303.34008
303.46082
303.52036
303.63973
303.70061
303.81625
303.87681
303.98754
304.04699
304.15227
304.21039
304.31001
304.36685
304.46077
304.51652
304.60481
304.65967
304.74249
304.79648
304.87409
304.92698
304.99973
305.05096
305.11925
305.16797
305.2322
305.27742
305.33792
305.37864
305.43565
305.47098
305.5247
305.55388
305.60455
305.62698
305.67493
305.69014
305.73581
305.74348
305.78733
302.86102
302.83849
302.82996
302.87109
302.86294
302.92854
302.94511
303.03297
303.06626
303.16739
303.21166
303.31834
303.369
303.47657
303.53034
303.63614
303.69108
303.79357
303.84863
303.94696
304.00168
304.09535
304.1496
304.23837
304.2922
304.37595
304.42945
304.50825
304.56134
304.63542
304.68776
304.75748
304.80843
304.87423
304.92288
304.9852
305.0305
305.08967
305.1306
305.18684
305.22248
305.27593
305.30549
305.35632
305.37914
305.4276
305.44315
305.48961
305.49748
305.54236
302.83155
302.81521
302.80495
302.84086
302.82763
302.88131
302.88806
302.96102
302.98371
303.07001
303.10445
303.19771
303.23988
303.33579
303.3825
303.47832
303.52749
303.62145
303.67186
303.76285
303.81387
303.90117
303.95252
304.03568
304.0873
304.16607
304.2179
304.29226
304.34414
304.41429
304.46578
304.53209
304.58245
304.64541
304.69367
304.75375
304.79882
304.85638
304.8972
304.95242
304.98806
305.04103
305.0707
305.1215
305.1445
305.19332
305.20905
305.25619
305.26417
305.30996
302.80453
302.79288
302.78193
302.81412
302.79822
302.84274
302.84235
302.90281
302.91681
302.98988
303.01565
303.0964
303.13068
303.21534
303.25522
303.34114
303.38456
303.46987
303.51551
303.59893
303.64605
303.72668
303.7749
303.85212
303.90126
303.97471
304.02462
304.0942
304.1446
304.21048
304.26083
304.32342
304.3729
304.43272
304.48028
304.53785
304.58236
304.63804
304.67845
304.73239
304.76777
304.82002
304.84955
304.90012
304.92308
304.97209
304.98784
305.03549
305.04351
305.09005
302.77975
302.77175
302.76061
302.79
302.7731
302.81067
302.80537
302.85556
302.86271
302.92421
302.94257
303.0119
303.03904
303.11308
303.14651
303.22283
303.26064
303.33737
303.37824
303.45401
303.49714
303.57093
303.61586
303.68693
303.7334
303.80128
303.84905
303.91359
303.96227
304.02363
304.07259
304.1312
304.17952
304.23596
304.28252
304.33734
304.38101
304.43457
304.47427
304.52671
304.56154
304.61285
304.64199
304.69212
304.71483
304.76383
304.77945
304.82744
304.83539
304.88251
302.757
302.75194
302.74085
302.76797
302.75117
302.78346
302.77506
302.81694
302.8189
302.87051
302.88272
302.94181
302.96267
303.02686
303.05437
303.12154
303.15401
303.2224
303.2586
303.3268
303.36592
303.43283
303.47439
303.5392
303.58286
303.64503
303.69049
303.74982
303.79658
303.85324
303.90058
303.95504
304.00194
304.05481
304.10011
304.15199
304.19452
304.24577
304.28448
304.33522
304.36923
304.41939
304.4479
304.49739
304.51965
304.56843
304.58375
304.63188
304.63969
304.68718
302.73612
302.7335
302.72259
302.74772
302.7317
302.75993
302.74983
302.78506
302.78329
302.82655
302.83383
302.88392
302.89939
302.95461
302.9768
303.03541
303.06292
303.12332
303.15505
303.21587
303.25107
303.31118
303.34936
303.4079
303.44869
303.50509
303.54811
303.60215
303.64684
303.6987
303.74422
303.7944
303.83967
303.88885
303.93264
303.98143
304.02258
304.07136
304.10882
304.15768
304.19062
304.23944
304.26708
304.31572
304.33734
304.3857
304.40059
304.44863
304.45623
304.50385
302.71696
302.71641
302.70578
302.72908
302.71421
302.73927
302.72848
302.75842
302.75414
302.79046
302.79392
302.83622
302.8472
302.89438
302.9119
302.96263
302.98562
303.0385
303.06604
303.11978
303.1512
303.20471
303.23955
303.29193
303.32983
303.38049
303.42101
303.46975
303.51224
303.55926
303.60282
303.64867
303.69212
303.73752
303.77962
303.82521
303.86476
303.91093
303.94693
303.99374
304.0254
304.0727
304.09929
304.14688
304.16768
304.2154
304.22973
304.27745
304.28476
304.33227
302.69938
302.70063
302.69038
302.71196
302.69841
302.7209
302.71014
302.73586
302.73006
302.76066
302.7613
302.79694
302.80428
302.84437
302.85789
302.90147
302.92042
302.96633
302.99001
303.03707
303.06492
303.11209
303.14371
303.19011
303.22515
303.2702
303.30818
303.35169
303.39192
303.43413
303.47561
303.51713
303.55863
303.60022
303.64044
303.68279
303.72054
303.76402
303.79837
303.84301
303.8732
303.91882
303.94417
303.99052
304.01036
304.05722
304.0709
304.11805
304.12503
304.17217
302.68328
302.6861
302.67634
302.69628
302.6841
302.70445
302.69418
302.71653
302.70995
302.73588
302.73454
302.76455
302.76903
302.80295
302.81312
302.85031
302.86574
302.90527
302.92545
302.96629
302.99083
303.032
303.06057
303.10123
303.1335
303.17311
303.20859
303.24699
303.28493
303.32242
303.36175
303.39899
303.43843
303.47624
303.51446
303.55354
303.58937
303.63008
303.66263
303.705
303.73356
303.77736
303.80134
303.84628
303.86504
303.91083
303.92376
303.97012
303.97671
304.02323
302.66856
302.67278
302.66363
302.68202
302.67118
302.68968
302.68017
302.69979
302.69298
302.7151
302.71246
302.73777
302.74009
302.76869
302.77613
302.80767
302.82008
302.85385
302.87095
302.90606
302.92758
302.96314
302.98885
303.02409
303.05371
303.08813
303.12115
303.15465
303.19029
303.22321
303.26036
303.29343
303.33074
303.36483
303.40096
303.43678
303.47058
303.50851
303.53914
303.57916
303.60599
303.64785
303.67035
303.71371
303.73129
303.77582
303.78793
303.83326
303.83943
303.88509
302.65517
302.66063
302.65219
302.66912
302.65957
302.67643
302.66781
302.68519
302.67852
302.69754
302.69415
302.71554
302.71629
302.74036
302.74563
302.77224
302.78212
302.81074
302.82514
302.85505
302.87386
302.90425
302.92733
302.95751
302.98462
303.01414
303.0448
303.07362
303.10702
303.13556
303.17052
303.19956
303.23472
303.26518
303.29917
303.33179
303.36349
303.39863
303.42727
303.4649
303.48992
303.52974
303.55068
303.59232
303.60867
303.65175
303.66299
303.70709
303.71281
303.75737
302.64306
302.64965
302.64199
302.65757
302.64922
302.66458
302.6569
302.67238
302.66611
302.68258
302.67884
302.69699
302.69666
302.7169
302.72049
302.74284
302.75064
302.77473
302.78682
302.81205
302.82846
302.85414
302.87482
302.90032
302.92511
302.95006
302.97847
303.0029
303.03411
303.05849
303.0913
303.11649
303.1495
303.17646
303.2083
303.23779
303.26738
303.29976
303.32638
303.36158
303.38475
303.42245
303.4418
303.48159
303.49666
303.53813
303.54848
303.59114
303.5964
303.63964
302.63226
302.63983
302.63301
302.64732
302.64006
302.65405
302.64729
302.66113
302.6554
302.66976
302.66596
302.68144
302.6804
302.69743
302.69977
302.71847
302.7246
302.74473
302.75487
302.77595
302.79026
302.81169
302.83022
302.85146
302.87409
302.89483
302.92112
302.94146
302.97057
302.99106
303.02178
303.04333
303.07422
303.09783
303.12755
303.15401
303.1815
303.21116
303.23575
303.26852
303.28985
303.32537
303.34311
303.38096
303.39474
303.43445
303.4439
303.48495
303.48974
303.53146
302.62279
302.6312
302.62523
302.63834
302.63207
302.64477
302.63888
302.65128
302.64614
302.65872
302.65507
302.66832
302.6669
302.68123
302.68267
302.69826
302.70307
302.71978
302.72831
302.74574
302.75825
302.77588
302.7925
302.80988
302.83056
302.84746
302.87177
302.88835
302.91547
302.93234
302.96104
302.97917
303.00801
303.02846
303.05609
303.07966
303.10507
303.13209
303.1547
303.18506
303.20455
303.23787
303.25402
303.28984
303.30234
303.34018
303.34872
303.38801
303.39235
303.43238
302.61477
302.62378
302.61862
302.63058
302.62519
302.63667
302.63156
302.64267
302.63814
302.6492
302.64582
302.65721
302.65562
302.6677
302.66853
302.68149
302.6853
302.69907
302.70628
302.72052
302.73149
302.74578
302.76072
302.77466
302.79357
302.807
302.82949
302.84264
302.86788
302.88143
302.9082
302.92317
302.95004
302.96751
302.99314
303.01394
303.03736
303.06181
303.08249
303.11047
303.12819
303.15929
303.17389
303.20762
303.21889
303.25475
303.26242
303.29981
303.3037
303.3419
302.60829
302.6176
302.61314
302.624
302.61935
302.62969
302.62527
302.6352
302.63126
302.64099
302.63795
302.64777
302.64617
302.65637
302.6568
302.66756
302.6706
302.68187
302.68802
302.69952
302.70919
302.72056
302.73403
302.74493
302.76225
302.77259
302.7934
302.80346
302.82696
302.83747
302.86243
302.87448
302.89948
302.91418
302.9379
302.95608
302.9776
302.99958
303.01843
303.04407
303.06009
303.08898
303.10209
303.13371
303.14378
303.17759
303.18442
303.21983
303.22328
303.25953
302.60343
302.61264
302.60874
302.61851
302.61449
302.62374
302.61992
302.62876
302.62535
302.63393
302.63125
302.63974
302.63822
302.64685
302.64704
302.65595
302.65844
302.66759
302.67289
302.68205
302.69063
302.69948
302.71167
302.71992
302.73582
302.74342
302.76271
302.77001
302.79189
302.79967
302.82294
302.83232
302.85556
302.86769
302.88962
302.90533
302.92506
302.94468
302.9618
302.98517
302.99959
303.02628
303.038
303.06747
303.07641
303.10813
303.11417
303.14751
303.15055
303.18476
302.60015
302.60884
302.60535
302.61404
302.61052
302.61874
302.61543
302.62327
302.62034
302.62787
302.62555
302.63289
302.63153
302.63883
302.63891
302.64627
302.64836
302.65573
302.66036
302.66754
302.67521
302.68189
302.69298
302.69894
302.71357
302.71879
302.73668
302.74155
302.76194
302.76729
302.78897
302.79595
302.81755
302.82732
302.84757
302.86098
302.87904
302.89642
302.91193
302.93311
302.94604
302.97056
302.98098
303.00832
303.01621
303.0458
303.0511
303.08233
303.08499
303.11709
302.59826
302.60607
302.60284
302.61047
302.60736
302.6146
302.61172
302.61863
302.61611
302.62271
302.62072
302.62707
302.62589
302.63206
302.63211
302.63818
302.63998
302.64586
302.64997
302.65547
302.66239
302.66724
302.67737
302.68137
302.69487
302.69804
302.71466
302.71742
302.73643
302.73963
302.75986
302.76467
302.78476
302.79236
302.81108
302.82234
302.83887
302.85413
302.86816
302.88722
302.89879
302.9212
302.93042
302.95564
302.96257
302.99004
302.99466
303.02374
303.02606
303.05602
302.59744
302.60415
302.60109
302.60769
302.60491
302.61123
302.6087
302.61475
302.61258
302.61834
302.61665
302.62213
302.62113
302.62635
302.62642
302.63139
302.633
302.63765
302.64134
302.64544
302.65173
302.65504
302.66435
302.66668
302.67918
302.6806
302.69608
302.69701
302.71476
302.71607
302.73496
302.73785
302.75655
302.7622
302.77951
302.78879
302.80393
302.81717
302.82987
302.84691
302.85724
302.8776
302.88574
302.90887
302.91493
302.94028
302.94429
302.97123
302.97323
303.00104
302.59732
302.60289
302.59994
302.60558
302.60305
302.60852
302.60628
302.61154
302.60966
302.61467
302.61324
302.61795
302.61713
302.62153
302.62164
302.6257
302.62718
302.63079
302.63415
302.6371
302.64285
302.64489
302.65346
302.65442
302.66602
302.66597
302.6804
302.67978
302.69637
302.69606
302.71372
302.71491
302.73235
302.73623
302.75227
302.75972
302.77361
302.78497
302.79647
302.81158
302.8208
302.83919
302.84635
302.86746
302.87274
302.896
302.89947
302.92428
302.926
302.95167
302.59756
302.6021
302.59925
302.60401
302.60168
302.60637
302.60438
302.60891
302.60728
302.6116
302.61039
302.61443
302.61376
302.61746
302.61762
302.62092
302.62229
302.62506
302.62814
302.63014
302.63543
302.63643
302.64436
302.64419
302.65497
302.6537
302.66717
302.66526
302.68079
302.67909
302.69563
302.69533
302.71162
302.71391
302.72881
302.73459
302.74737
302.75697
302.76742
302.78069
302.78894
302.80542
302.81174
302.83087
302.83546
302.85669
302.85968
302.8824
302.88387
302.90742
302.5979
302.60159
302.59888
302.60285
302.60071
302.60469
302.60291
302.60678
302.60536
302.60905
302.60803
302.61147
302.61094
302.61403
302.61424
302.61689
302.61819
302.62025
302.6231
302.62433
302.62921
302.62937
302.63672
302.63564
302.64567
302.64342
302.65601
302.65303
302.66758
302.66472
302.68022
302.67864
302.69389
302.69478
302.70866
302.7129
302.72471
302.73267
302.7422
302.75373
302.76114
302.7758
302.78138
302.79861
302.80261
302.82185
302.82443
302.84511
302.84637
302.86785
302.59821
302.60126
302.59872
302.60202
302.60004
302.60339
302.60179
302.60507
302.60382
302.60696
302.60609
302.60899
302.60858
302.61114
302.61139
302.61349
302.61472
302.6162
302.61884
302.61946
302.62397
302.62347
302.63028
302.62848
302.63782
302.6348
302.64656
302.64273
302.65637
302.65254
302.6671
302.66443
302.67873
302.67838
302.69136
302.69421
302.70517
302.71161
302.72034
302.73024
302.73693
302.74985
302.75481
302.77021
302.77371
302.79104
302.79327
302.81197
302.81305
302.83251
302.59844
302.60101
302.59868
302.60141
302.5996
302.60239
302.60095
302.6037
302.6026
302.60524
302.6045
302.60692
302.6066
302.6087
302.60897
302.61061
302.61178
302.61278
302.61523
302.61535
302.61953
302.6185
302.62482
302.62248
302.63117
302.62755
302.63855
302.63404
302.64683
302.64223
302.65591
302.65232
302.66577
302.66433
302.67651
302.6781
302.68833
302.69336
302.70142
302.70979
302.71588
302.72715
302.73159
302.74523
302.74832
302.76381
302.76575
302.78254
302.78347
302.80099
302.59859
302.6008
302.59871
302.60095
302.59931
302.60162
302.60032
302.60261
302.60164
302.60384
302.6032
302.6052
302.60494
302.60664
302.60692
302.60817
302.60926
302.60987
302.61214
302.61187
302.61573
302.61431
302.62016
302.61741
302.62549
302.62144
302.6317
302.6267
302.63869
302.63348
302.64635
302.64199
302.65466
302.65228
302.66375
302.66422
302.67381
302.67755
302.68506
302.69198
302.69758
302.70729
302.7113
302.72328
302.72604
302.73977
302.74147
302.75644
302.75725
302.7729
302.59868
302.60061
302.59875
302.6006
302.59913
302.60102
302.59986
302.60175
302.60088
302.60268
302.60212
302.60375
302.60354
302.60488
302.60516
302.60607
302.60709
302.60738
302.60947
302.60889
302.61244
302.61073
302.61614
302.6131
302.62061
302.61625
302.62582
302.62046
302.63169
302.62603
302.63813
302.63317
302.64512
302.64194
302.65278
302.65225
302.6613
302.66385
302.67089
302.67647
302.68167
302.68991
302.69359
302.704
302.70648
302.71854
302.72006
302.73328
302.734
302.74786
302.59871
302.60041
302.59879
302.60032
302.59901
302.60055
302.59952
302.60105
302.60028
302.60173
302.60123
302.60252
302.60234
302.60337
302.60363
302.60425
302.60518
302.60521
302.60712
302.60631
302.60957
302.60765
302.61263
302.60941
302.61636
302.61182
302.62072
302.61514
302.62564
302.61966
302.63104
302.6256
302.63689
302.63304
302.64331
302.64189
302.65048
302.65195
302.65862
302.66295
302.66784
302.6747
302.67812
302.68704
302.68932
302.69979
302.70117
302.71274
302.71339
302.72555
302.59871
302.60022
302.59882
302.60007
302.59892
302.60017
302.59925
302.60047
302.59978
302.60093
302.60047
302.60147
302.6013
302.60205
302.60228
302.60265
302.60348
302.6033
302.60503
302.60404
302.60701
302.60497
302.60952
302.60621
302.61261
302.60799
302.61625
302.61056
302.62036
302.61418
302.62487
302.61907
302.62975
302.62534
302.6351
302.63291
302.6411
302.64158
302.64795
302.65114
302.65578
302.66136
302.66458
302.6721
302.67423
302.68321
302.68449
302.69449
302.69509
302.70565
302.59868
302.60002
302.59881
302.59984
302.59885
302.59984
302.59903
302.59999
302.59936
302.60023
302.59981
302.60054
302.60036
302.60087
302.60105
302.60121
302.60194
302.60158
302.60312
302.60201
302.60469
302.60258
302.60673
302.60339
302.60926
302.60465
302.61228
302.60657
302.6157
302.60942
302.61945
302.61341
302.62351
302.61865
302.62794
302.62508
302.63293
302.63253
302.63865
302.64078
302.64524
302.64962
302.65271
302.65891
302.66094
302.66852
302.66973
302.67826
302.67882
302.68787
302.59862
302.59981
302.59879
302.59962
302.59877
302.59955
302.59884
302.59955
302.59898
302.5996
302.59919
302.59969
302.59949
302.59978
302.5999
302.59988
302.6005
302.6
302.60136
302.60016
302.60256
302.60041
302.60417
302.60087
302.60622
302.60168
302.6087
302.60306
302.61154
302.60525
302.61464
302.60846
302.61799
302.6128
302.62165
302.61822
302.62576
302.62458
302.6305
302.63166
302.63599
302.63925
302.64226
302.64723
302.6492
302.65546
302.65663
302.66378
302.66432
302.67195
302.59853
302.5996
302.59873
302.5994
302.59868
302.59927
302.59864
302.59914
302.59861
302.59901
302.5986
302.59887
302.59865
302.59874
302.5988
302.59861
302.59912
302.5985
302.59967
302.59842
302.60054
302.59841
302.60178
302.59855
302.60342
302.599
302.60543
302.59992
302.60776
302.60155
302.61032
302.60409
302.61307
302.60764
302.61607
302.61217
302.61943
302.61756
302.6233
302.62359
302.62782
302.63006
302.63301
302.63684
302.63878
302.64381
302.64496
302.65082
302.65135
302.65765
302.59841
302.59938
302.59865
302.59918
302.59857
302.59899
302.59842
302.59873
302.59821
302.59841
302.59799
302.59806
302.59779
302.59771
302.5977
302.59736
302.59775
302.59704
302.59803
302.59674
302.5986
302.59651
302.59951
302.5964
302.60078
302.59653
302.60239
302.59707
302.60428
302.59822
302.60638
302.60018
302.60863
302.60304
302.61106
302.60679
302.61377
302.61131
302.6169
302.6164
302.62056
302.62186
302.62478
302.62756
302.62948
302.63338
302.63453
302.63918
302.63972
302.64478
302.59828
302.59916
302.59854
302.59894
302.59843
302.59869
302.59816
302.59828
302.59777
302.59777
302.59732
302.59721
302.5969
302.59665
302.59656
302.5961
302.59638
302.59558
302.5964
302.59509
302.59669
302.59466
302.5973
302.59433
302.59825
302.59421
302.59951
302.59443
302.60103
302.59518
302.60273
302.59663
302.60456
302.59889
302.60652
302.60196
302.60868
302.6057
302.61116
302.60995
302.61406
302.6145
302.6174
302.61922
302.62114
302.62398
302.62514
302.62868
302.62922
302.63314
302.59812
302.59893
302.59841
302.5987
302.59825
302.59836
302.59784
302.59778
302.59725
302.59707
302.59659
302.5963
302.59593
302.59553
302.59537
302.59479
302.59495
302.59409
302.59474
302.59344
302.59479
302.59283
302.59514
302.59232
302.5958
302.59198
302.59675
302.59194
302.59795
302.59235
302.59931
302.59338
302.60078
302.59512
302.60233
302.59757
302.60402
302.60063
302.60594
302.60411
302.60817
302.60784
302.61074
302.61166
302.6136
302.61547
302.61665
302.61916
302.61971
302.62257
302.59793
302.59871
302.59825
302.59843
302.59802
302.59797
302.59744
302.5972
302.59664
302.59627
302.59574
302.59529
302.59486
302.59432
302.59408
302.5934
302.59345
302.59254
302.59303
302.59173
302.59286
302.59099
302.59297
302.59032
302.59338
302.58981
302.59407
302.58955
302.59499
302.58968
302.59607
302.59034
302.59723
302.59163
302.59844
302.59355
302.59972
302.59599
302.60115
302.59879
302.60279
302.60177
302.60466
302.60478
302.60673
302.60772
302.60891
302.61048
302.61104
302.61293
302.59772
302.59848
302.59807
302.59813
302.59772
302.5975
302.59693
302.5965
302.59589
302.59535
302.59476
302.59415
302.59366
302.593
302.59268
302.59191
302.59186
302.5909
302.59125
302.58997
302.59088
302.58909
302.59078
302.58831
302.59097
302.58765
302.59143
302.58721
302.59211
302.58711
302.59294
302.58747
302.59384
302.58837
302.59476
302.58981
302.5957
302.5917
302.5967
302.59388
302.59781
302.59619
302.59906