/*--------------------------------*- C++ -*----------------------------------*\
| =========                 |                                                 |
| \\      /  F ield         | OpenFOAM: The Open Source CFD Toolbox           |
|  \\    /   O peration     | Version:  2312                                  |
|   \\  /    A nd           | Website:  www.openfoam.com                      |
|    \\/     M anipulation  |                                                 |
\*---------------------------------------------------------------------------*/
FoamFile
{
    version     2.0;
    format      ascii;
    arch        "LSB;label=32;scalar=64";
    class       volVectorField;
    location    "2";
    object      U_0;
}
// * * * * * * * * * * * * * * * * * * * * * * * * * * * * * * * * * * * * * //

dimensions      [0 1 -1 0 0 0 0];

internalField   nonuniform List<vector> 
4000
(
(0.0026958854 0.00052002278 0)
(0.0043081733 -1.0838465e-05 0)
(0.0028653797 -4.2727719e-07 0)
(0.0031143888 8.1631972e-08 0)
(0.0030016597 -2.0926136e-07 0)
(0.0030601667 1.9703249e-07 0)
(0.0029945991 -2.2382445e-07 0)
(0.003041848 1.9362792e-07 0)
(0.0029974477 -1.8600257e-07 0)
(0.0030369362 1.7464121e-07 0)
(0.0029998863 -1.6556039e-07 0)
(0.003034411 1.5662987e-07 0)
(0.0030017425 -1.4876697e-07 0)
(0.0030324954 1.4104704e-07 0)
(0.0030033939 -1.3400189e-07 0)
(0.0030308545 1.2723698e-07 0)
(0.0030048983 -1.2094035e-07 0)
(0.0030293987 1.1497576e-07 0)
(0.0030062622 -1.0938232e-07 0)
(0.0030280936 1.0411667e-07 0)
(0.0030074947 -9.9167304e-08 0)
(0.0030269189 9.4522022e-08 0)
(0.0030086081 -9.0154127e-08 0)
(0.0030258583 8.6062092e-08 0)
(0.0030096153 -8.2216668e-08 0)
(0.003024898 7.8619654e-08 0)
(0.0030105291 -7.5242691e-08 0)
(0.0030240254 7.2089218e-08 0)
(0.0030113612 -6.9133516e-08 0)
(0.0030232292 6.6379008e-08 0)
(0.0030121223 -6.3802919e-08 0)
(0.0030224991 6.140887e-08 0)
(0.003012822 -5.9176854e-08 0)
(0.0030218259 5.7110209e-08 0)
(0.0030134692 -5.5191683e-08 0)
(0.0030212014 5.3424635e-08 0)
(0.0030140718 -5.179406e-08 0)
(0.0030206179 5.0302879e-08 0)
(0.0030146368 -4.893916e-08 0)
(0.0030200687 4.7705001e-08 0)
(0.0030151708 -4.6590547e-08 0)
(0.0030195476 4.5598401e-08 0)
(0.0030156799 -4.472035e-08 0)
(0.0030190483 4.3958329e-08 0)
(0.0030161683 -4.331375e-08 0)
(0.003018564 4.2760086e-08 0)
(0.0030166453 -4.2373333e-08 0)
(0.0030181309 4.2096825e-08 0)
(0.0030172914 -4.1330389e-08 0)
(0.0030182421 4.5034901e-08 0)
(0.0069660136 0.0013992632 0)
(0.011838891 4.7807996e-06 0)
(0.0085594073 1.420742e-05 0)
(0.008987782 -5.5486961e-07 0)
(0.0087108271 -2.237908e-07 0)
(0.0088838801 8.9050441e-07 0)
(0.0086914887 -5.1815987e-07 0)
(0.0088312229 6.8545443e-07 0)
(0.008699182 -6.2022535e-07 0)
(0.0088175896 6.1669695e-07 0)
(0.0087064497 -5.8229712e-07 0)
(0.0088102947 5.5926899e-07 0)
(0.0087120179 -5.2861991e-07 0)
(0.0088045924 5.0393358e-07 0)
(0.0087169913 -4.7754554e-07 0)
(0.0087996699 4.5435916e-07 0)
(0.0087215229 -4.3147962e-07 0)
(0.0087952959 4.1054389e-07 0)
(0.0087256304 -3.9049575e-07 0)
(0.0087913726 3.7185671e-07 0)
(0.0087293427 -3.5421145e-07 0)
(0.0087878387 3.3771578e-07 0)
(0.008732698 -3.2217333e-07 0)
(0.0087846455 3.07624e-07 0)
(0.0087357363 -2.9394674e-07 0)
(0.0087817509 2.811468e-07 0)
(0.0087384962 -2.6913563e-07 0)
(0.0087791171 2.5790824e-07 0)
(0.0087410127 -2.4739066e-07 0)
(0.0087767101 2.3757852e-07 0)
(0.008743318 -2.2840799e-07 0)
(0.0087744994 2.1987529e-07 0)
(0.0087454411 -2.1192476e-07 0)
(0.0087724573 2.04555e-07 0)
(0.0087474083 -1.9771813e-07 0)
(0.0087705592 1.914123e-07 0)
(0.0087492431 -1.8559778e-07 0)
(0.0087687823 1.8027461e-07 0)
(0.0087509671 -1.7540655e-07 0)
(0.0087671062 1.709959e-07 0)
(0.0087526 -1.6701498e-07 0)
(0.0087655121 1.6346178e-07 0)
(0.0087541601 -1.603133e-07 0)
(0.0087639817 1.57594e-07 0)
(0.0087556616 -1.552024e-07 0)
(0.0087624917 1.5328101e-07 0)
(0.0087571204 -1.5213575e-07 0)
(0.0087610952 1.4841886e-07 0)
(0.0087589222 -1.5712518e-07 0)
(0.0087610886 1.4455055e-07 0)
(0.010888512 0.0021257391 0)
(0.018788399 -2.3217429e-05 0)
(0.014103247 3.4766677e-05 0)
(0.014703797 -6.2433183e-07 0)
(0.014268745 -2.0277791e-07 0)
(0.014559456 1.7400442e-06 0)
(0.01423764 -7.6121369e-07 0)
(0.014474916 1.2490835e-06 0)
(0.014251246 -1.1071712e-06 0)
(0.014452929 1.1215252e-06 0)
(0.014263753 -1.0588835e-06 0)
(0.01444078 1.0217023e-06 0)
(0.014273263 -9.6418773e-07 0)
(0.014431124 9.2078476e-07 0)
(0.014281754 -8.718039e-07 0)
(0.014422752 8.3001369e-07 0)
(0.014289484 -7.8797723e-07 0)
(0.014415304 7.4992648e-07 0)
(0.014296488 -7.1326537e-07 0)
(0.014408622 6.7928983e-07 0)
(0.014302816 -6.4708278e-07 0)
(0.014402601 6.1698174e-07 0)
(0.014308537 -5.8862657e-07 0)
(0.014397158 5.6206587e-07 0)
(0.014313719 -5.371174e-07 0)
(0.014392222 5.137442e-07 0)
(0.014318429 -4.9182957e-07 0)
(0.014387727 4.7132323e-07 0)
(0.014322726 -4.5213122e-07 0)
(0.014383617 4.3420481e-07 0)
(0.014326666 -4.1746568e-07 0)
(0.01437984 4.0187271e-07 0)
(0.014330296 -3.8735522e-07 0)
(0.014376347 3.7388266e-07 0)
(0.014333663 -3.6139423e-07 0)
(0.014373099 3.4986276e-07 0)
(0.014336805 -3.3923587e-07 0)
(0.014370055 3.2949398e-07 0)
(0.01433976 -3.2059206e-07 0)
(0.014367182 3.1251483e-07 0)
(0.014342562 -3.0522671e-07 0)
(0.014364446 2.9870941e-07 0)
(0.014345241 -2.9293509e-07 0)
(0.014361817 2.8794146e-07 0)
(0.014347823 -2.8349085e-07 0)
(0.014359255 2.8002722e-07 0)
(0.01435033 -2.7780505e-07 0)
(0.014356812 2.7003565e-07 0)
(0.014353307 -2.917084e-07 0)
(0.014356488 2.6302869e-07 0)
(0.015520335 0.0030898804 0)
(0.025395011 -2.5727525e-05 0)
(0.019483974 6.3303957e-05 0)
(0.020262541 -9.9205455e-07 0)
(0.019676162 3.0823743e-08 0)
(0.020086138 2.6790997e-06 0)
(0.019632971 -8.2117669e-07 0)
(0.019973177 1.7856697e-06 0)
(0.019653493 -1.5540405e-06 0)
(0.019943173 1.6039251e-06 0)
(0.019671632 -1.5156679e-06 0)
(0.019926067 1.469278e-06 0)
(0.019685323 -1.384408e-06 0)
(0.019912275 1.3244941e-06 0)
(0.019697537 -1.2529237e-06 0)
(0.019900271 1.1936619e-06 0)
(0.019708647 -1.1328754e-06 0)
(0.019889583 1.0784393e-06 0)
(0.019718706 -1.0256822e-06 0)
(0.01987999 9.7692742e-07 0)
(0.019727794 -9.3066371e-07 0)
(0.019871344 8.8741899e-07 0)
(0.01973601 -8.4671446e-07 0)
(0.019863527 8.0853922e-07 0)
(0.019743455 -7.7272511e-07 0)
(0.019856434 7.391198e-07 0)
(0.019750224 -7.0765915e-07 0)
(0.019849975 6.781695e-07 0)
(0.019756402 -6.5060776e-07 0)
(0.019844065 6.2482225e-07 0)
(0.019762067 -6.0077681e-07 0)
(0.019838631 5.78341e-07 0)
(0.019767291 -5.5747899e-07 0)
(0.019833605 5.3808843e-07 0)
(0.019772137 -5.2013682e-07 0)
(0.019828928 5.0353193e-07 0)
(0.019776662 -4.882504e-07 0)
(0.019824545 4.7421987e-07 0)
(0.019780919 -4.6141001e-07 0)
(0.019820404 4.4976825e-07 0)
(0.019784956 -4.3927787e-07 0)
(0.019816461 4.2987296e-07 0)
(0.019788818 -4.2155027e-07 0)
(0.019812671 4.1434449e-07 0)
(0.019792544 -4.0785353e-07 0)
(0.019808974 4.0297384e-07 0)
(0.01979616 -3.9963937e-07 0)
(0.019805412 3.8708307e-07 0)
(0.01980033 -4.2683487e-07 0)
(0.019804554 3.7809655e-07 0)
(0.018997383 0.0035810579 0)
(0.03149691 -8.2029521e-05 0)
(0.024699455 9.6180929e-05 0)
(0.025671205 -1.4309014e-06 0)
(0.024932229 4.8214835e-07 0)
(0.025463145 3.6873082e-06 0)
(0.024877416 -7.0406878e-07 0)
(0.025325874 2.2670881e-06 0)
(0.024906052 -1.9436661e-06 0)
(0.025288183 2.0425075e-06 0)
(0.024930201 -1.9341038e-06 0)
(0.025266031 1.8833961e-06 0)
(0.024948297 -1.7719253e-06 0)
(0.025247935 1.6983652e-06 0)
(0.024964427 -1.6051308e-06 0)
(0.025232132 1.5302798e-06 0)
(0.024979083 -1.4519035e-06 0)
(0.025218049 1.3825197e-06 0)
(0.024992347 -1.3148274e-06 0)
(0.025205405 1.2524893e-06 0)
(0.025004328 -1.1932419e-06 0)
(0.025194008 1.1378829e-06 0)
(0.025015162 -1.0857794e-06 0)
(0.0251837 1.0368865e-06 0)
(0.02502498 -9.9104839e-07 0)
(0.025174347 9.4799447e-07 0)
(0.025033908 -9.077175e-07 0)
(0.025165825 8.6992682e-07 0)
(0.025042059 -8.3463553e-07 0)
(0.025158026 8.0158168e-07 0)
(0.025049536 -7.7078299e-07 0)
(0.025150853 7.4201546e-07 0)
(0.025056432 -7.152845e-07 0)
(0.025144218 6.9041362e-07 0)
(0.025062831 -6.6740471e-07 0)
(0.025138042 6.461009e-07 0)
(0.025068808 -6.2650523e-07 0)
(0.025132252 6.0849387e-07 0)
(0.025074431 -5.920621e-07 0)
(0.025126782 5.7711227e-07 0)
(0.025079765 -5.6364656e-07 0)
(0.025121572 5.5155827e-07 0)
(0.025084868 -5.4086778e-07 0)
(0.025116564 5.316092e-07 0)
(0.025089792 -5.2317382e-07 0)
(0.025111681 5.1706529e-07 0)
(0.025094571 -5.1257024e-07 0)
(0.02510694 4.9496091e-07 0)
(0.025099954 -5.564248e-07 0)
(0.025105363 4.847901e-07 0)
(0.023364429 0.0043622443 0)
(0.037317841 -8.730594e-05 0)
(0.029749001 0.00013509657 0)
(0.030930019 -2.5536902e-06 0)
(0.030035887 1.097564e-06 0)
(0.030689915 4.7495117e-06 0)
(0.029971233 -4.4525256e-07 0)
(0.030532633 2.6883014e-06 0)
(0.030009343 -2.282106e-06 0)
(0.030487593 2.4382498e-06 0)
(0.030039823 -2.3168603e-06 0)
(0.030460338 2.2656664e-06 0)
(0.030062505 -2.1285586e-06 0)
(0.030437806 2.0439024e-06 0)
(0.030082706 -1.9299588e-06 0)
(0.030418068 1.8412582e-06 0)
(0.030101046 -1.7464285e-06 0)
(0.030400466 1.6634444e-06 0)
(0.030117635 -1.5819336e-06 0)
(0.030384658 1.5071375e-06 0)
(0.03013262 -1.435922e-06 0)
(0.030370406 1.3694171e-06 0)
(0.030146169 -1.3068264e-06 0)
(0.030357513 1.2480604e-06 0)
(0.030158451 -1.1929941e-06 0)
(0.03034581 1.1412258e-06 0)
(0.030169622 -1.0928362e-06 0)
(0.030335146 1.0473851e-06 0)
(0.030179824 -1.0049696e-06 0)
(0.030325384 9.6520525e-07 0)
(0.030189185 -9.2817891e-07 0)
(0.030316404 8.9355997e-07 0)
(0.03019782 -8.6141107e-07 0)
(0.030308095 8.3147264e-07 0)
(0.030205833 -8.0379212e-07 0)
(0.030300359 7.7813533e-07 0)
(0.030213318 -7.5455229e-07 0)
(0.030293107 7.3285758e-07 0)
(0.030220362 -7.1306901e-07 0)
(0.030286255 6.9505039e-07 0)
(0.030227043 -6.7883095e-07 0)
(0.03027973 6.6424515e-07 0)
(0.030233436 -6.5135496e-07 0)
(0.030273456 6.4018399e-07 0)
(0.030239605 -6.2990251e-07 0)
(0.030267342 6.2274438e-07 0)
(0.030245589 -6.1698863e-07 0)
(0.030261378 5.9419083e-07 0)
(0.030252204 -6.8003045e-07 0)
(0.030258916 5.8275916e-07 0)
(0.027085976 0.0048611544 0)
(0.04261847 -0.00016459076 0)
(0.034639884 0.00017481557 0)
(0.036041449 -4.1942056e-06 0)
(0.034984847 1.9239443e-06 0)
(0.035766505 5.8793218e-06 0)
(0.034914837 -6.4885526e-08 0)
(0.035593078 3.0484505e-06 0)
(0.034963815 -2.5743994e-06 0)
(0.035541013 2.7934845e-06 0)
(0.035000876 -2.6672257e-06 0)
(0.035508636 2.6185032e-06 0)
(0.035028283 -2.4568204e-06 0)
(0.035481572 2.3632976e-06 0)
(0.035052676 -2.2295804e-06 0)
(0.0354578 2.1286019e-06 0)
(0.035074803 -2.0183868e-06 0)
(0.035436583 1.9230316e-06 0)
(0.03509481 -1.8287407e-06 0)
(0.035417524 1.7425176e-06 0)
(0.03511288 -1.6602856e-06 0)
(0.035400336 1.5835245e-06 0)
(0.035129223 -1.5112804e-06 0)
(0.035384784 1.4434169e-06 0)
(0.035144039 -1.3798622e-06 0)
(0.035370665 1.3200575e-06 0)
(0.035157519 -1.264192e-06 0)
(0.035357794 1.2116709e-06 0)
(0.035169832 -1.1626928e-06 0)
(0.035346011 1.1167281e-06 0)
(0.035181133 -1.0739587e-06 0)
(0.035335168 1.0339305e-06 0)
(0.03519156 -9.9678064e-07 0)
(0.035325134 9.6215304e-07 0)
(0.035201237 -9.3015674e-07 0)
(0.035315791 9.004726e-07 0)
(0.035210278 -8.7319977e-07 0)
(0.035307032 8.4808516e-07 0)
(0.035218786 -8.2519252e-07 0)
(0.035298756 8.0432646e-07 0)
(0.035226856 -7.8554948e-07 0)
(0.035290874 7.6864236e-07 0)
(0.035234576 -7.537101e-07 0)
(0.035283298 7.4075794e-07 0)
(0.035242027 -7.2871569e-07 0)
(0.035275917 7.2065095e-07 0)
(0.035249254 -7.1352994e-07 0)
(0.035268693 6.8558102e-07 0)
(0.035257114 -7.9753699e-07 0)
(0.035265206 6.7217993e-07 0)
(0.031180865 0.0053760851 0)
(0.047647725 -0.00017366575 0)
(0.039384041 0.00021666664 0)
(0.040994621 -5.1291392e-06 0)
(0.039778099 3.1017173e-06 0)
(0.040692375 7.0239866e-06 0)
(0.03970847 3.9073177e-07 0)
(0.040506768 3.3326347e-06 0)
(0.039769822 -2.8261723e-06 0)
(0.040448079 3.1066088e-06 0)
(0.039813688 -2.9862568e-06 0)
(0.04041061 2.9417111e-06 0)
(0.039845927 -2.7569116e-06 0)
(0.040378953 2.6565027e-06 0)
(0.039874599 -2.5040464e-06 0)
(0.040351076 2.3923027e-06 0)
(0.039900588 -2.2677993e-06 0)
(0.040326178 2.1612875e-06 0)
(0.039924081 -2.0552598e-06 0)
(0.040303803 1.958636e-06 0)
(0.039945299 -1.8663224e-06 0)
(0.040283621 1.7801913e-06 0)
(0.039964492 -1.6991343e-06 0)
(0.040265355 1.6229474e-06 0)
(0.039981896 -1.5516335e-06 0)
(0.040248767 1.4844653e-06 0)
(0.039997734 -1.4217724e-06 0)
(0.040233643 1.3627689e-06 0)
(0.040012205 -1.3077833e-06 0)
(0.040219793 1.2561313e-06 0)
(0.040025489 -1.2081021e-06 0)
(0.040207045 1.1631059e-06 0)
(0.040037748 -1.12137e-06 0)
(0.040195247 1.0824334e-06 0)
(0.040049127 -1.046477e-06 0)
(0.04018426 1.0130827e-06 0)
(0.04005976 -9.8242301e-07 0)
(0.040173957 9.5416553e-07 0)
(0.040069766 -9.2841229e-07 0)
(0.040164224 9.0492043e-07 0)
(0.040079257 -8.8379362e-07 0)
(0.040154954 8.6473668e-07 0)
(0.040088337 -8.4791941e-07 0)
(0.040146045 8.3331309e-07 0)
(0.040097099 -8.1961597e-07 0)
(0.04013737 8.1080294e-07 0)
(0.040105597 -8.021974e-07 0)
(0.04012886 7.6923008e-07 0)
(0.040114711 -9.0829507e-07 0)
(0.040124225 7.5288696e-07 0)
(0.035225285 0.0059276687 0)
(0.052092185 -0.00026120655 0)
(0.043993528 0.00024990171 0)
(0.045753122 -5.2497305e-06 0)
(0.044411732 4.7228468e-06 0)
(0.045468389 8.2472072e-06 0)
(0.044353519 9.5191571e-07 0)
(0.04527381 3.5477576e-06 0)
(0.044427909 -3.0333301e-06 0)
(0.045208566 3.3784661e-06 0)
(0.044478587 -3.2731255e-06 0)
(0.045165993 3.2348281e-06 0)
(0.044515705 -3.0282244e-06 0)
(0.045129703 2.922905e-06 0)
(0.044548712 -2.7528006e-06 0)
(0.045097675 2.6317994e-06 0)
(0.044578613 -2.494144e-06 0)
(0.045069051 2.3776982e-06 0)
(0.044605635 -2.2610018e-06 0)
(0.045043319 2.1550186e-06 0)
(0.044630044 -2.0535932e-06 0)
(0.045020102 1.9589959e-06 0)
(0.044652125 -1.8699691e-06 0)
(0.044999084 1.7862491e-06 0)
(0.044672154 -1.7079259e-06 0)
(0.044979991 1.6340862e-06 0)
(0.044690385 -1.5652093e-06 0)
(0.044962579 1.500327e-06 0)
(0.044707047 -1.4399046e-06 0)
(0.044946629 1.3830868e-06 0)
(0.044722346 -1.3302907e-06 0)
(0.044931946 1.2807797e-06 0)
(0.044736467 -1.2348831e-06 0)
(0.044918354 1.1920265e-06 0)
(0.044749578 -1.1524735e-06 0)
(0.044905695 1.1157059e-06 0)
(0.044761829 -1.0819636e-06 0)
(0.044893824 1.0508341e-06 0)
(0.044773359 -1.0224822e-06 0)
(0.044882608 9.965949e-07 0)
(0.044784295 -9.7332005e-07 0)
(0.044871927 9.5229975e-07 0)
(0.044794757 -9.3376346e-07 0)
(0.044861662 9.1764179e-07 0)
(0.044804852 -9.0239454e-07 0)
(0.044851672 8.929625e-07 0)
(0.044814642 -8.8279603e-07 0)
(0.044841857 8.4507671e-07 0)
(0.044825016 -1.0115769e-06 0)
(0.04483597 8.2462574e-07 0)
(0.038991151 0.0061675714 0)
(0.056252781 -0.00028734422 0)
(0.048545188 0.00029464937 0)
(0.050286944 -8.0472202e-06 0)
(0.048871257 5.2214531e-06 0)
(0.050090733 9.1529935e-06 0)
(0.048849094 1.4956695e-06 0)
(0.049893439 3.6607184e-06 0)
(0.04893819 -3.2060162e-06 0)
(0.049822118 3.6056121e-06 0)
(0.048995804 -3.5289208e-06 0)
(0.049774521 3.497043e-06 0)
(0.04903785 -3.270625e-06 0)
(0.049733595 3.1620455e-06 0)
(0.049075226 -2.9755361e-06 0)
(0.049697397 2.8467302e-06 0)
(0.049109067 -2.6971054e-06 0)
(0.049665023 2.5719483e-06 0)
(0.049139644 -2.4456689e-06 0)
(0.04963591 2.3313764e-06 0)
(0.049167266 -2.2217985e-06 0)
(0.049609635 2.1196477e-06 0)
(0.04919226 -2.0235146e-06 0)
(0.049585842 1.9330607e-06 0)
(0.049214936 -1.8484749e-06 0)
(0.049564222 1.7686596e-06 0)
(0.049235583 -1.6942663e-06 0)
(0.049544499 1.6241136e-06 0)
(0.049254458 -1.5588249e-06 0)
(0.049526428 1.4973746e-06 0)
(0.049271792 -1.4403093e-06 0)
(0.04950979 1.3867427e-06 0)
(0.049287795 -1.3371138e-06 0)
(0.049494384 1.2907335e-06 0)
(0.049302656 -1.2479524e-06 0)
(0.049480034 1.2081419e-06 0)
(0.049316543 -1.1716325e-06 0)
(0.049466576 1.1379229e-06 0)
(0.049329614 -1.1072248e-06 0)
(0.049453862 1.0791757e-06 0)
(0.049342012 -1.0539717e-06 0)
(0.049441753 1.0311696e-06 0)
(0.049353871 -1.0110804e-06 0)
(0.049430118 9.9357837e-07 0)
(0.049365315 -9.7691e-07 0)
(0.049418799 9.6700857e-07 0)
(0.049376412 -9.5519706e-07 0)
(0.049407668 9.1302611e-07 0)
(0.049388047 -1.1067276e-06 0)
(0.049400442 8.8735571e-07 0)
(0.043407952 0.0067716959 0)
(0.059942132 -0.00037772496 0)
(0.052933255 0.0003320641 0)
(0.054669414 -1.123625e-05 0)
(0.053164839 4.8097232e-06 0)
(0.054562573 9.7328004e-06 0)
(0.0531967 2.0321774e-06 0)
(0.054365849 3.679038e-06 0)
(0.053301132 -3.3403043e-06 0)
(0.054288566 3.7902667e-06 0)
(0.053365619 -3.7530237e-06 0)
(0.054235981 3.7286185e-06 0)
(0.053412586 -3.4839563e-06 0)
(0.054190426 3.3738481e-06 0)
(0.053454338 -3.1721604e-06 0)
(0.054150057 3.0369901e-06 0)
(0.053492125 -2.8765851e-06 0)
(0.054113929 2.7439257e-06 0)
(0.053526264 -2.6091507e-06 0)
(0.054081429 2.487594e-06 0)
(0.053557107 -2.3708442e-06 0)
(0.054052087 2.2620523e-06 0)
(0.053585022 -2.1596601e-06 0)
(0.054025509 2.0632725e-06 0)
(0.053610355 -1.9731801e-06 0)
(0.054001352 1.8880914e-06 0)
(0.053633428 -1.8088286e-06 0)
(0.053979308 1.7340193e-06 0)
(0.053654525 -1.6644412e-06 0)
(0.053959106 1.5988885e-06 0)
(0.053673906 -1.5380532e-06 0)
(0.053940501 1.4808931e-06 0)
(0.053691801 -1.4279636e-06 0)
(0.053923271 1.378457e-06 0)
(0.053708422 -1.3328174e-06 0)
(0.053907221 1.29031e-06 0)
(0.053723957 -1.251343e-06 0)
(0.053892166 1.2153301e-06 0)
(0.053738578 -1.1825553e-06 0)
(0.053877942 1.1525818e-06 0)
(0.053752447 -1.1256545e-06 0)
(0.053864396 1.1012655e-06 0)
(0.053765713 -1.0797953e-06 0)
(0.053851382 1.061058e-06 0)
(0.053778513 -1.0430884e-06 0)
(0.053838728 1.0328271e-06 0)
(0.053790927 -1.0193432e-06 0)
(0.053826276 9.7311644e-07 0)
(0.05380382 -1.1932709e-06 0)
(0.053817638 9.410902e-07 0)
(0.046915295 0.0067725607 0)
(0.063484206 -0.00040791894 0)
(0.057046714 0.00035786818 0)
(0.058974007 -1.1011479e-05 0)
(0.057312782 4.8777673e-06 0)
(0.058887432 1.0105367e-05 0)
(0.057397759 2.6104226e-06 0)
(0.058691007 3.6105362e-06 0)
(0.057517009 -3.4356898e-06 0)
(0.058607671 3.9322052e-06 0)
(0.057588241 -3.9462933e-06 0)
(0.058550156 3.9293678e-06 0)
(0.057640109 -3.6684881e-06 0)
(0.058500005 3.5582878e-06 0)
(0.057686226 -3.3427668e-06 0)
(0.058455485 3.2025982e-06 0)
(0.057727947 -3.0326279e-06 0)
(0.058415617 2.8936568e-06 0)
(0.057765638 -2.7514738e-06 0)
(0.058379737 2.6236901e-06 0)
(0.057799696 -2.5007189e-06 0)
(0.058347335 2.3861925e-06 0)
(0.057830527 -2.278399e-06 0)
(0.058317976 2.1768737e-06 0)
(0.057858515 -2.0820142e-06 0)
(0.058291283 1.9923467e-06 0)
(0.057884012 -1.9088796e-06 0)
(0.058266919 1.8300215e-06 0)
(0.057907332 -1.7567214e-06 0)
(0.058244584 1.6876011e-06 0)
(0.05792876 -1.6234921e-06 0)
(0.058224011 1.5631991e-06 0)
(0.057948551 -1.507397e-06 0)
(0.058204955 1.4551629e-06 0)
(0.057966934 -1.407034e-06 0)
(0.058187201 1.3621617e-06 0)
(0.057984118 -1.3210548e-06 0)
(0.058170547 1.2830348e-06 0)
(0.058000293 -1.2484359e-06 0)
(0.058154811 1.2167753e-06 0)
(0.058015636 -1.1883473e-06 0)
(0.058139826 1.1625556e-06 0)
(0.05803031 -1.1398731e-06 0)
(0.05812543 1.1200382e-06 0)
(0.058044469 -1.100912e-06 0)
(0.058111439 1.0904242e-06 0)
(0.058058202 -1.0752314e-06 0)
(0.058097667 1.0253348e-06 0)
(0.058072347 -1.2707763e-06 0)
(0.05808756 9.8602354e-07 0)
(0.051703987 0.0074171622 0)
(0.066676687 -0.00048959149 0)
(0.060942018 0.00038193543 0)
(0.063181184 -1.0992724e-05 0)
(0.061309908 4.8977318e-06 0)
(0.063063885 1.0138481e-05 0)
(0.061451749 3.1789484e-06 0)
(0.062868431 3.450774e-06 0)
(0.061585943 -3.493045e-06 0)
(0.062779189 4.0326005e-06 0)
(0.061663863 -4.1088721e-06 0)
(0.06271685 4.0996501e-06 0)
(0.061720602 -3.8244134e-06 0)
(0.062662159 3.7155365e-06 0)
(0.061771055 -3.4875266e-06 0)
(0.062613527 3.3436913e-06 0)
(0.061816682 -3.1653642e-06 0)
(0.062569946 3.0212457e-06 0)
(0.061857901 -2.8727318e-06 0)
(0.062530711 2.7397428e-06 0)
(0.061895151 -2.6115166e-06 0)
(0.062495266 2.4921529e-06 0)
(0.061928882 -2.3797882e-06 0)
(0.062463141 2.2739149e-06 0)
(0.061959511 -2.1750319e-06 0)
(0.062433924 2.0814797e-06 0)
(0.061987421 -1.9944429e-06 0)
(0.062407249 1.9121447e-06 0)
(0.062012956 -1.8356915e-06 0)
(0.06238279 1.7635292e-06 0)
(0.062036424 -1.6966397e-06 0)
(0.062360255 1.6336732e-06 0)
(0.062058103 -1.5754263e-06 0)
(0.062339379 1.5208607e-06 0)
(0.062078244 -1.470609e-06 0)
(0.062319925 1.4237182e-06 0)
(0.062097073 -1.3807784e-06 0)
(0.062301676 1.3410271e-06 0)
(0.062114798 -1.3048749e-06 0)
(0.062284432 1.2717652e-06 0)
(0.062131611 -1.2420411e-06 0)
(0.062268011 1.2150451e-06 0)
(0.062147691 -1.1913235e-06 0)
(0.062252237 1.1705392e-06 0)
(0.062163205 -1.1503858e-06 0)
(0.062236914 1.1397582e-06 0)
(0.062178254 -1.1228873e-06 0)
(0.06222183 1.0697839e-06 0)
(0.06219364 -1.3389583e-06 0)
(0.062210209 1.0223226e-06 0)
(0.054907459 0.0072166774 0)
(0.069737105 -0.00053567348 0)
(0.064688276 0.00039976271 0)
(0.067236692 -1.2900635e-05 0)
(0.065163103 5.1154024e-06 0)
(0.06709207 9.827356e-06 0)
(0.06535946 3.7546545e-06 0)
(0.066898248 3.2040091e-06 0)
(0.065508312 -3.5110441e-06 0)
(0.066803012 4.0924948e-06 0)
(0.065592702 -4.2412589e-06 0)
(0.066735902 4.2397581e-06 0)
(0.065654237 -3.9521185e-06 0)
(0.066676731 3.8458334e-06 0)
(0.065708976 -3.6067216e-06 0)
(0.066624037 3.4604932e-06 0)
(0.065758465 -3.2750223e-06 0)
(0.066576788 3.1268982e-06 0)
(0.065803173 -2.9731197e-06 0)
(0.066534233 2.8359319e-06 0)
(0.065843584 -2.7033742e-06 0)
(0.066495776 2.5800584e-06 0)
(0.065880187 -2.4639592e-06 0)
(0.06646091 2.3545166e-06 0)
(0.065913432 -2.2523297e-06 0)
(0.066429191 2.1555741e-06 0)
(0.065943736 -2.0656187e-06 0)
(0.066400225 1.9804769e-06 0)
(0.065971468 -1.9014253e-06 0)
(0.066373658 1.8267481e-06 0)
(0.065996961 -1.7575645e-06 0)
(0.066349175 1.692379e-06 0)
(0.066020515 -1.6321076e-06 0)
(0.066326491 1.5756044e-06 0)
(0.066042401 -1.5235937e-06 0)
(0.066305349 1.4750124e-06 0)
(0.066062864 -1.4305542e-06 0)
(0.066285515 1.3893672e-06 0)
(0.066082129 -1.3519099e-06 0)
(0.066266773 1.3175877e-06 0)
(0.066100402 -1.28679e-06 0)
(0.066248925 1.2587732e-06 0)
(0.066117878 -1.2341803e-06 0)
(0.066231782 1.2125853e-06 0)
(0.066134739 -1.1915598e-06 0)
(0.066215137 1.1809084e-06 0)
(0.066151096 -1.1623762e-06 0)
(0.066198752 1.1064891e-06 0)
(0.066167709 -1.397546e-06 0)
(0.066185586 1.050316e-06 0)
(0.059855328 0.0078298479 0)
(0.072588637 -0.00059722821 0)
(0.068327204 0.00041107253 0)
(0.071106095 -1.4904725e-05 0)
(0.068875961 5.3814604e-06 0)
(0.070971119 9.1347316e-06 0)
(0.069120946 4.2917142e-06 0)
(0.070780236 2.8559822e-06 0)
(0.069284298 -3.4950447e-06 0)
(0.07067897 4.1114571e-06 0)
(0.069374931 -4.3444045e-06 0)
(0.070607152 4.3500326e-06 0)
(0.069441171 -4.0520856e-06 0)
(0.070543577 3.9495278e-06 0)
(0.069500128 -3.7007258e-06 0)
(0.070486886 3.5533225e-06 0)
(0.069553421 -3.3619079e-06 0)
(0.070436024 3.2108828e-06 0)
(0.069601568 -3.0528873e-06 0)
(0.070390196 2.9124844e-06 0)
(0.069645096 -2.776532e-06 0)
(0.070348768 2.6501324e-06 0)
(0.069684532 -2.531099e-06 0)
(0.070311197 2.4188543e-06 0)
(0.069720362 -2.3140836e-06 0)
(0.070277007 2.2148002e-06 0)
(0.069753029 -2.1225396e-06 0)
(0.070245776 2.0351485e-06 0)
(0.069782932 -1.9540514e-06 0)
(0.070217125 1.8773721e-06 0)
(0.069810427 -1.8063745e-06 0)
(0.070190716 1.7394195e-06 0)
(0.069835836 -1.6775414e-06 0)
(0.070166243 1.6194894e-06 0)
(0.069859449 -1.5660778e-06 0)
(0.070143432 1.5161476e-06 0)
(0.06988153 -1.470471e-06 0)
(0.070122029 1.4281185e-06 0)
(0.069902318 -1.3896243e-06 0)
(0.070101804 1.3543249e-06 0)
(0.069922037 -1.3226537e-06 0)
(0.070082544 1.2938147e-06 0)
(0.069940895 -1.2685221e-06 0)
(0.070064046 1.2462658e-06 0)
(0.069959087 -1.2245026e-06 0)
(0.070046092 1.213891e-06 0)
(0.069976739 -1.1937881e-06 0)
(0.070028425 1.1356075e-06 0)
(0.069994561 -1.4464138e-06 0)
(0.070013693 1.0702622e-06 0)
(0.062980643 0.0075594411 0)
(0.075321373 -0.00064804707 0)
(0.071904763 0.00041613811 0)
(0.074762422 -1.818896e-05 0)
(0.072453427 5.1706927e-06 0)
(0.074700513 8.1034935e-06 0)
(0.072736674 4.7884146e-06 0)
(0.07451439 2.4127895e-06 0)
(0.072914155 -3.4428288e-06 0)
(0.07440695 4.0916561e-06 0)
(0.073010725 -4.4184923e-06 0)
(0.074330461 4.4311804e-06 0)
(0.073081549 -4.1247928e-06 0)
(0.074262563 4.027094e-06 0)
(0.07314464 -3.7699779e-06 0)
(0.074201953 3.6225842e-06 0)
(0.073201667 -3.4264065e-06 0)
(0.074147544 3.2735635e-06 0)
(0.07325319 -3.1123774e-06 0)
(0.074098502 2.9697226e-06 0)
(0.073299781 -2.8312581e-06 0)
(0.074054153 2.7026261e-06 0)
(0.073342003 -2.5814626e-06 0)
(0.074013921 2.4671663e-06 0)
(0.073380374 -2.3605015e-06 0)
(0.0739773 2.2593487e-06 0)
(0.073415369 -2.165411e-06 0)
(0.073943839 2.0763473e-06 0)
(0.07344741 -1.9937393e-06 0)
(0.073913135 1.9155701e-06 0)
(0.073476877 -1.8432284e-06 0)
(0.073884828 1.7749459e-06 0)
(0.073504114 -1.7118677e-06 0)
(0.073858591 1.6526507e-06 0)
(0.07352943 -1.5981916e-06 0)
(0.073834134 1.5472318e-06 0)
(0.073553105 -1.5006439e-06 0)
(0.073811184 1.4574166e-06 0)
(0.073575395 -1.4181256e-06 0)
(0.073789497 1.3820815e-06 0)
(0.073596539 -1.349756e-06 0)
(0.073768844 1.3202745e-06 0)
(0.07361676 -1.2944468e-06 0)
(0.073749011 1.2716668e-06 0)
(0.073636265 -1.2493272e-06 0)
(0.073729768 1.2388542e-06 0)
(0.073655195 -1.2172488e-06 0)
(0.07371084 1.1572035e-06 0)
(0.073674205 -1.4854316e-06 0)
(0.073694533 1.0825757e-06 0)
(0.067855976 0.0080030512 0)
(0.077942019 -0.00070097531 0)
(0.075405897 0.00041778395 0)
(0.078230477 -2.1215032e-05 0)
(0.075896494 4.3526797e-06 0)
(0.078280576 6.8867561e-06 0)
(0.07620702 5.249851e-06 0)
(0.078100477 1.8804037e-06 0)
(0.076397962 -3.3531054e-06 0)
(0.077986757 4.0348898e-06 0)
(0.076500194 -4.4639852e-06 0)
(0.077905677 4.4838517e-06 0)
(0.07657549 -4.1708801e-06 0)
(0.077833563 4.0790425e-06 0)
(0.076642628 -3.815023e-06 0)
(0.077769124 3.668745e-06 0)
(0.076703307 -3.4689742e-06 0)
(0.077711247 3.3153463e-06 0)
(0.076758135 -3.1519733e-06 0)
(0.077659058 3.0079995e-06 0)
(0.076807725 -2.8679183e-06 0)
(0.077611849 2.7378824e-06 0)
(0.076852677 -2.6153494e-06 0)
(0.077569009 2.4997361e-06 0)
(0.07689354 -2.3918652e-06 0)
(0.077530003 2.2894911e-06 0)
(0.076930818 -2.1944608e-06 0)
(0.077494353 2.1042968e-06 0)
(0.076964957 -2.0207077e-06 0)
(0.077461634 1.941542e-06 0)
(0.076996361 -1.8683173e-06 0)
(0.077431463 1.7991412e-06 0)
(0.077025393 -1.7352656e-06 0)
(0.077403495 1.67526e-06 0)
(0.077052381 -1.6200984e-06 0)
(0.07737742 1.5684412e-06 0)
(0.077077622 -1.5212312e-06 0)
(0.077352951 1.4773905e-06 0)
(0.077101389 -1.4375649e-06 0)
(0.077329827 1.4010049e-06 0)
(0.077123933 -1.3682182e-06 0)
(0.077307806 1.3382904e-06 0)
(0.077145492 -1.3120947e-06 0)
(0.077286661 1.2889399e-06 0)
(0.077166286 -1.2661587e-06 0)
(0.077266152 1.2558664e-06 0)
(0.077186473 -1.2329043e-06 0)
(0.077245989 1.1714858e-06 0)
(0.077206644 -1.5146134e-06 0)
(0.077228107 1.0875647e-06 0)
(0.071288353 0.0077561295 0)
(0.080495427 -0.00074541765 0)
(0.078792729 0.00041259271 0)
(0.081552681 -2.3698129e-05 0)
(0.079210007 2.7805663e-06 0)
(0.08171183 5.5623323e-06 0)
(0.079533145 5.6798574e-06 0)
(0.081538414 1.2723061e-06 0)
(0.079735896 -3.2215981e-06 0)
(0.081418265 3.9444818e-06 0)
(0.079843463 -4.480729e-06 0)
(0.081332668 4.5090384e-06 0)
(0.079923109 -4.190947e-06 0)
(0.08125646 4.106006e-06 0)
(0.079994196 -3.8364481e-06 0)
(0.081188297 3.692346e-06 0)
(0.080058439 -3.4901334e-06 0)
(0.08112704 3.3367217e-06 0)
(0.080116491 -3.1721425e-06 0)
(0.081071782 3.0277551e-06 0)
(0.080169008 -2.8868909e-06 0)
(0.08102178 2.7562579e-06 0)
(0.080216625 -2.6331183e-06 0)
(0.080976392 2.5169011e-06 0)
(0.080259924 -2.4084765e-06 0)
(0.080935055 2.3055091e-06 0)
(0.080299434 -2.2099843e-06 0)
(0.080897265 2.11927e-06 0)
(0.080335625 -2.0352083e-06 0)
(0.080862575 1.9555373e-06 0)
(0.080368924 -1.8818775e-06 0)
(0.08083058 1.8122321e-06 0)
(0.080399713 -1.7479476e-06 0)
(0.080800917 1.6875221e-06 0)
(0.080428337 -1.6319972e-06 0)
(0.080773258 1.5799493e-06 0)
(0.080455112 -1.5324131e-06 0)
(0.080747302 1.4882412e-06 0)
(0.080480324 -1.4481103e-06 0)
(0.080722771 1.4112598e-06 0)
(0.080504239 -1.3782251e-06 0)
(0.080699412 1.3480245e-06 0)
(0.080527107 -1.32162e-06 0)
(0.080676981 1.2982252e-06 0)
(0.080549164 -1.2751656e-06 0)
(0.080655235 1.2651366e-06 0)
(0.080570579 -1.2409317e-06 0)
(0.080633867 1.1785548e-06 0)
(0.080591885 -1.5339503e-06 0)
(0.08061442 1.085692e-06 0)
(0.076102665 0.0080293548 0)
(0.083003109 -0.00078742007 0)
(0.082013031 0.00040351989 0)
(0.084768491 -2.486389e-05 0)
(0.082397852 9.2998813e-07 0)
(0.084994724 4.2820672e-06 0)
(0.082717084 6.0999666e-06 0)
(0.08482816 6.0897284e-07 0)
(0.082928211 -3.0450231e-06 0)
(0.084701412 3.823596e-06 0)
(0.083040679 -4.4687553e-06 0)
(0.084611334 4.5077458e-06 0)
(0.083124523 -4.1856941e-06 0)
(0.084531152 4.1086672e-06 0)
(0.083199447 -3.834916e-06 0)
(0.084459376 3.6939862e-06 0)
(0.083267153 -3.4904582e-06 0)
(0.084394836 3.3382113e-06 0)
(0.083328339 -3.1733779e-06 0)
(0.084336594 3.029448e-06 0)
(0.083383704 -2.888647e-06 0)
(0.084283875 2.7581961e-06 0)
(0.083433916 -2.6351633e-06 0)
(0.084236007 2.5190364e-06 0)
(0.083479586 -2.410707e-06 0)
(0.084192399 2.3077598e-06 0)
(0.08352127 -2.2122904e-06 0)
(0.084152524 2.12157e-06 0)
(0.083559462 -2.037537e-06 0)
(0.084115911 1.9578291e-06 0)
(0.083594608 -1.8841719e-06 0)
(0.084082138 1.8144706e-06 0)
(0.08362711 -1.7501604e-06 0)
(0.084050822 1.6896749e-06 0)
(0.083657331 -1.634115e-06 0)
(0.084021618 1.5819956e-06 0)
(0.083685601 -1.5344085e-06 0)
(0.083994211 1.4901547e-06 0)
(0.083712223 -1.4499718e-06 0)
(0.083968308 1.4130505e-06 0)
(0.083737475 -1.3799516e-06 0)
(0.083943643 1.3496695e-06 0)
(0.083761621 -1.3232168e-06 0)
(0.08391996 1.2997285e-06 0)
(0.083784908 -1.2765221e-06 0)
(0.083897007 1.2667793e-06 0)
(0.083807523 -1.2415242e-06 0)
(0.083874467 1.1786659e-06 0)
(0.083829931 -1.5435768e-06 0)
(0.083853474 1.0772839e-06 0)
(0.079638186 0.0077694697 0)
(0.085453701 -0.00082064027 0)
(0.085065351 0.00038781747 0)
(0.087875197 -2.6227839e-05 0)
(0.085456799 -1.2567506e-06 0)
(0.088126625 3.0376321e-06 0)
(0.085759968 6.4651172e-06 0)
(0.08796915 -9.4702554e-08 0)
(0.085974942 -2.8272274e-06 0)