/*--------------------------------*- C++ -*----------------------------------*\
| =========                 |                                                 |
| \\      /  F ield         | OpenFOAM: The Open Source CFD Toolbox           |
|  \\    /   O peration     | Version:  2312                                  |
|   \\  /    A nd           | Website:  www.openfoam.com                      |
|    \\/     M anipulation  |                                                 |
\*---------------------------------------------------------------------------*/
FoamFile
{
    version     2.0;
    format      ascii;
    arch        "LSB;label=32;scalar=64";
    class       volSymmTensorField;
    location    "7";
    object      sigma_0;
}
// * * * * * * * * * * * * * * * * * * * * * * * * * * * * * * * * * * * * * //

dimensions      [0 2 -2 0 0 0 0];

internalField   nonuniform List<symmTensor> 
4000
(
(-4.0749791 -1.841408 0 -0.77668322 0 0)
(-13.164902 -0.7199966 0 -0.012732254 0 0)
(-4.2866105 -0.37900663 0 -0.00242721 0 0)
(-4.7219022 -0.39520752 0 0.00027028371 0 0)
(-4.2632328 -0.3776568 0 -0.00020774563 0 0)
(-4.1599143 -0.37227766 0 2.4081372e-05 0 0)
(-4.190172 -0.37405377 0 -6.2823824e-05 0 0)
(-4.0645566 -0.36796868 0 1.2855433e-05 0 0)
(-4.1275338 -0.37109803 0 -3.2637704e-05 0 0)
(-4.0520964 -0.36738333 0 2.1927685e-05 0 0)
(-4.10875 -0.37021771 0 -2.5043914e-05 0 0)
(-4.054752 -0.3675112 0 2.2471556e-05 0 0)
(-4.1023758 -0.36991545 0 -2.2020423e-05 0 0)
(-4.0580149 -0.36767078 0 2.0662693e-05 0 0)
(-4.0990172 -0.3697514 0 -1.9684474e-05 0 0)
(-4.0605448 -0.36779742 0 1.8526281e-05 0 0)
(-4.0965195 -0.36962674 0 -1.7547917e-05 0 0)
(-4.0626824 -0.36790562 0 1.6532457e-05 0 0)
(-4.0944179 -0.36952085 0 -1.5636804e-05 0 0)
(-4.0645829 -0.36800204 0 1.4755161e-05 0 0)
(-4.0925841 -0.3694282 0 -1.3956767e-05 0 0)
(-4.0662808 -0.36808814 0 1.3189011e-05 0 0)
(-4.0909639 -0.36934634 0 -1.2484416e-05 0 0)
(-4.067797 -0.36816489 0 1.1813655e-05 0 0)
(-4.0895235 -0.36927367 0 -1.1194364e-05 0 0)
(-4.0691526 -0.36823334 0 1.0607624e-05 0 0)
(-4.0882365 -0.36920888 0 -1.0064676e-05 0 0)
(-4.0703682 -0.36829455 0 9.5517998e-06 0 0)
(-4.0870816 -0.36915088 0 -9.0771297e-06 0 0)
(-4.0714623 -0.36834948 0 8.6299703e-06 0 0)
(-4.0860407 -0.36909877 0 -8.2166796e-06 0 0)
(-4.0724509 -0.36839895 0 7.8285892e-06 0 0)
(-4.0850984 -0.36905174 0 -7.4708723e-06 0 0)
(-4.0733482 -0.36844368 0 7.1363569e-06 0 0)
(-4.0842413 -0.36900912 0 -6.8293412e-06 0 0)
(-4.0741666 -0.36848432 0 6.543825e-06 0 0)
(-4.0834574 -0.36897031 0 -6.2834254e-06 0 0)
(-4.0749175 -0.36852143 0 6.0430942e-06 0 0)
(-4.0827361 -0.36893477 0 -5.8259157e-06 0 0)
(-4.075611 -0.36855552 0 5.62762e-06 0 0)
(-4.0820674 -0.36890202 0 -5.4509142e-06 0 0)
(-4.0762566 -0.36858704 0 5.2922136e-06 0 0)
(-4.0814422 -0.36887162 0 -5.1536239e-06 0 0)
(-4.0768638 -0.36861646 0 5.0335601e-06 0 0)
(-4.0808541 -0.36884324 0 -4.9308802e-06 0 0)
(-4.0774436 -0.36864431 0 4.8464126e-06 0 0)
(-4.0802886 -0.36881633 0 -4.8012611e-06 0 0)
(-4.0779488 -0.36866875 0 4.6780705e-06 0 0)
(-4.0795232 -0.36878157 0 -4.9035076e-06 0 0)
(-4.0777856 -0.3686613 0 4.7373904e-06 0 0)
(-3.1145594 -1.5410338 0 -0.69135038 0 0)
(-10.768921 -0.69951584 0 -0.026462117 0 0)
(-5.0673734 -0.43138675 0 -0.0072364757 0 0)
(-4.3742144 -0.37872328 0 0.0002604942 0 0)
(-3.9625161 -0.36552828 0 -0.00052418701 0 0)
(-3.8378662 -0.35763405 0 9.9549033e-07 0 0)
(-3.8785419 -0.36022507 0 -0.00011951219 0 0)
(-3.7713968 -0.35447921 0 -2.0599282e-05 0 0)
(-3.8221471 -0.35720986 0 -4.4325246e-05 0 0)
(-3.7582758 -0.3537678 0 1.5203545e-05 0 0)
(-3.8048738 -0.35632243 0 -2.7522583e-05 0 0)
(-3.7596077 -0.35383048 0 2.2576632e-05 0 0)
(-3.7993789 -0.35604205 0 -2.3575124e-05 0 0)
(-3.7621808 -0.3539673 0 2.196561e-05 0 0)
(-3.7965935 -0.35589409 0 -2.1219396e-05 0 0)
(-3.7642724 -0.35408269 0 1.9906194e-05 0 0)
(-3.7945052 -0.35577949 0 -1.8958315e-05 0 0)
(-3.7660558 -0.35418249 0 1.7813593e-05 0 0)
(-3.7927362 -0.3556813 0 -1.6888876e-05 0 0)
(-3.7676462 -0.35427166 0 1.5916086e-05 0 0)
(-3.7911915 -0.35559534 0 -1.5070339e-05 0 0)
(-3.7690696 -0.35435134 0 1.4234375e-05 0 0)
(-3.7898265 -0.3555194 0 -1.3480025e-05 0 0)
(-3.7703423 -0.35442243 0 1.2753977e-05 0 0)
(-3.7886121 -0.35545194 0 -1.2087872e-05 0 0)
(-3.7714818 -0.35448592 0 1.1454201e-05 0 0)
(-3.7875262 -0.35539174 0 -1.0868966e-05 0 0)
(-3.7725047 -0.35454275 0 1.0315489e-05 0 0)
(-3.786551 -0.35533781 0 -9.8033502e-06 0 0)
(-3.7734261 -0.3545938 0 9.3209223e-06 0 0)
(-3.7856714 -0.3552893 0 -8.8748473e-06 0 0)
(-3.7742594 -0.35463981 0 8.4562384e-06 0 0)
(-3.7848748 -0.35524551 0 -8.0701656e-06 0 0)
(-3.7750161 -0.35468144 0 7.7094806e-06 0 0)
(-3.7841498 -0.35520581 0 -7.37827e-06 0 0)
(-3.7757068 -0.35471927 0 7.0706321e-06 0 0)
(-3.7834866 -0.35516964 0 -6.7899658e-06 0 0)
(-3.7763409 -0.35475382 0 6.5313415e-06 0 0)
(-3.7828759 -0.35513652 0 -6.2976664e-06 0 0)
(-3.7769271 -0.35478556 0 6.0847682e-06 0 0)
(-3.7823094 -0.35510599 0 -5.8953295e-06 0 0)
(-3.7774733 -0.35481493 0 5.7257694e-06 0 0)
(-3.7817792 -0.35507763 0 -5.5780566e-06 0 0)
(-3.7779875 -0.35484233 0 5.4526491e-06 0 0)
(-3.7812795 -0.35505113 0 -5.3421998e-06 0 0)
(-3.7784806 -0.35486834 0 5.2603199e-06 0 0)
(-3.780805 -0.35502645 0 -5.233086e-06 0 0)
(-3.7789359 -0.3548929 0 5.0159838e-06 0 0)
(-3.7802169 -0.35499919 0 -5.6689118e-06 0 0)
(-3.7789182 -0.35489224 0 5.0404064e-06 0 0)
(-3.2332829 -1.5810177 0 -0.69515781 0 0)
(-8.9323139 -0.64240768 0 -0.031365922 0 0)
(-5.0174806 -0.44419498 0 -0.010898931 0 0)
(-4.2531685 -0.37319404 0 1.6513621e-05 0 0)
(-3.7734076 -0.3574391 0 -0.00078427919 0 0)
(-3.6322797 -0.34791006 0 -1.799109e-05 0 0)
(-3.6720721 -0.35073235 0 -0.00015382618 0 0)
(-3.5789781 -0.34536551 0 -4.9446377e-05 0 0)
(-3.6241979 -0.34790442 0 -5.0260592e-05 0 0)
(-3.5673141 -0.3446425 0 7.1916952e-06 0 0)
(-3.6083639 -0.34703132 0 -2.6880204e-05 0 0)
(-3.568137 -0.34467418 0 2.0192982e-05 0 0)
(-3.6033492 -0.34676278 0 -2.2342181e-05 0 0)
(-3.5703461 -0.34479905 0 2.067943e-05 0 0)
(-3.6008755 -0.34662414 0 -2.0186752e-05 0 0)
(-3.5721961 -0.34490808 0 1.888022e-05 0 0)
(-3.5990286 -0.3465161 0 -1.8060452e-05 0 0)
(-3.5737784 -0.34500268 0 1.6925439e-05 0 0)
(-3.5974612 -0.34642314 0 -1.6081502e-05 0 0)
(-3.5751894 -0.34508717 0 1.5134959e-05 0 0)
(-3.5960922 -0.34634174 0 -1.4344776e-05 0 0)
(-3.5764528 -0.34516269 0 1.3541258e-05 0 0)
(-3.5948823 -0.34626983 0 -1.2829331e-05 0 0)
(-3.5775833 -0.3452301 0 1.2135368e-05 0 0)
(-3.5938056 -0.34620592 0 -1.150392e-05 0 0)
(-3.578596 -0.34529034 0 1.0899597e-05 0 0)
(-3.5928423 -0.34614886 0 -1.0343662e-05 0 0)
(-3.5795057 -0.34534432 0 9.8162316e-06 0 0)
(-3.5919769 -0.34609769 0 -9.3292393e-06 0 0)
(-3.5803254 -0.34539283 0 8.869629e-06 0 0)
(-3.5911961 -0.34605165 0 -8.4452465e-06 0 0)
(-3.5810669 -0.34543658 0 8.0464788e-06 0 0)
(-3.5904887 -0.34601005 0 -7.6791146e-06 0 0)
(-3.5817404 -0.34547619 0 7.3355749e-06 0 0)
(-3.5898449 -0.34597232 0 -7.0204415e-06 0 0)
(-3.5823552 -0.34551219 0 6.7275193e-06 0 0)
(-3.5892557 -0.34593794 0 -6.4605901e-06 0 0)
(-3.5829196 -0.34554509 0 6.2145045e-06 0 0)
(-3.5887132 -0.34590643 0 -5.9924999e-06 0 0)
(-3.5834413 -0.34557532 0 5.7902141e-06 0 0)
(-3.5882097 -0.34587737 0 -5.6107099e-06 0 0)
(-3.5839275 -0.34560331 0 5.4501343e-06 0 0)
(-3.5877383 -0.34585036 0 -5.3109034e-06 0 0)
(-3.5843853 -0.34562943 0 5.194231e-06 0 0)
(-3.5872937 -0.34582508 0 -5.089198e-06 0 0)
(-3.5848247 -0.34565423 0 5.0204492e-06 0 0)
(-3.5868724 -0.34580163 0 -5.0029378e-06 0 0)
(-3.5852378 -0.34567829 0 4.7589277e-06 0 0)
(-3.5863656 -0.34577772 0 -5.6412914e-06 0 0)
(-3.5852822 -0.34567919 0 5.1546109e-06 0 0)
(-2.9561015 -1.4365932 0 -0.60720671 0 0)
(-7.9145617 -0.60975419 0 -0.034406363 0 0)
(-4.9249152 -0.45546633 0 -0.014714548 0 0)
(-4.142655 -0.36799944 0 -0.000209819 0 0)
(-3.6050741 -0.35011935 0 -0.0011129974 0 0)
(-3.4374946 -0.33837658 0 -4.3444526e-05 0 0)
(-3.4723883 -0.3412448 0 -0.00018907232 0 0)
(-3.3907671 -0.33623938 0 -8.2159175e-05 0 0)
(-3.4319504 -0.33859829 0 -5.3926744e-05 0 0)
(-3.3809011 -0.33551916 0 -3.5478201e-06 0 0)
(-3.4175308 -0.33774362 0 -2.4105056e-05 0 0)
(-3.3813591 -0.33551931 0 1.5749257e-05 0 0)
(-3.4129059 -0.33748579 0 -1.9178719e-05 0 0)
(-3.3832482 -0.33563129 0 1.7603711e-05 0 0)
(-3.4106751 -0.33735609 0 -1.7454493e-05 0 0)
(-3.3848935 -0.33573361 0 1.6260054e-05 0 0)
(-3.4090199 -0.33725452 0 -1.5657812e-05 0 0)
(-3.386311 -0.33582289 0 1.4617942e-05 0 0)
(-3.4076123 -0.33716667 0 -1.3935166e-05 0 0)
(-3.3875761 -0.33590266 0 1.3089591e-05 0 0)
(-3.4063815 -0.33708967 0 -1.242467e-05 0 0)
(-3.3887096 -0.33597402 0 1.1719382e-05 0 0)
(-3.4052934 -0.33702161 0 -1.1110366e-05 0 0)
(-3.3897245 -0.33603779 0 1.0506175e-05 0 0)
(-3.4043247 -0.33696108 0 -9.9620999e-06 0 0)
(-3.3906343 -0.33609483 0 9.4375879e-06 0 0)
(-3.4034579 -0.336907 0 -8.9569851e-06 0 0)
(-3.3914518 -0.33614597 0 8.4996648e-06 0 0)
(-3.4026789 -0.33685847 0 -8.0779879e-06 0 0)
(-3.3921887 -0.33619197 0 7.6795643e-06 0 0)
(-3.4019761 -0.33681477 0 -7.3118159e-06 0 0)
(-3.3928552 -0.33623347 0 6.9661467e-06 0 0)
(-3.4013395 -0.33677528 0 -6.6477052e-06 0 0)
(-3.3934606 -0.33627106 0 6.3499283e-06 0 0)
(-3.4007603 -0.33673944 0 -6.0767564e-06 0 0)
(-3.394013 -0.33630525 0 5.8229052e-06 0 0)
(-3.4002305 -0.33670677 0 -5.5915806e-06 0 0)
(-3.39452 -0.3363365 0 5.3784205e-06 0 0)
(-3.3997428 -0.33667682 0 -5.1861689e-06 0 0)
(-3.3949885 -0.33636524 0 5.0111175e-06 0 0)
(-3.3992904 -0.33664918 0 -4.8559814e-06 0 0)
(-3.395425 -0.33639186 0 4.7173258e-06 0 0)
(-3.398867 -0.33662347 0 -4.5973381e-06 0 0)
(-3.3958358 -0.33641673 0 4.498524e-06 0 0)
(-3.3984676 -0.33659935 0 -4.4055172e-06 0 0)
(-3.39623 -0.33644035 0 4.3544416e-06 0 0)
(-3.3980907 -0.33657708 0 -4.3486483e-06 0 0)
(-3.3966073 -0.33646394 0 4.0630556e-06 0 0)
(-3.3976545 -0.33655629 0 -5.1955949e-06 0 0)
(-3.3967075 -0.33646676 0 4.7424969e-06 0 0)
(-2.7917356 -1.3447577 0 -0.55486731 0 0)
(-6.8960713 -0.57689811 0 -0.036636746 0 0)
(-4.7186007 -0.45964832 0 -0.017992688 0 0)
(-4.0165724 -0.36260405 0 -0.0004888802 0 0)
(-3.4493214 -0.34312983 0 -0.001472217 0 0)
(-3.2532802 -0.32900511 0 -6.8189983e-05 0 0)
(-3.2786445 -0.33170144 0 -0.00021950254 0 0)
(-3.2067241 -0.32704942 0 -0.00010955124 0 0)
(-3.2448813 -0.32927614 0 -5.624347e-05 0 0)
(-3.1990305 -0.32637813 0 -1.3144388e-05 0 0)
(-3.2320596 -0.32845959 0 -2.1421086e-05 0 0)
(-3.1993636 -0.32635743 0 1.1703269e-05 0 0)
(-3.227823 -0.32821346 0 -1.618128e-05 0 0)
(-3.2009979 -0.32645847 0 1.4750689e-05 0 0)
(-3.2257983 -0.32809198 0 -1.4870421e-05 0 0)
(-3.2024688 -0.32655475 0 1.3801007e-05 0 0)
(-3.2243061 -0.32799642 0 -1.3389126e-05 0 0)
(-3.2037472 -0.32663921 0 1.2444033e-05 0 0)
(-3.2230353 -0.32791334 0 -1.1910006e-05 0 0)
(-3.2048895 -0.32671472 0 1.1160825e-05 0 0)
(-3.2219225 -0.3278404 0 -1.06131e-05 0 0)
(-3.2059136 -0.32678231 0 1.0000645e-05 0 0)
(-3.2209381 -0.32777588 0 -9.4882443e-06 0 0)
(-3.2068312 -0.32684277 0 8.9686663e-06 0 0)
(-3.2200613 -0.32771845 0 -8.5067604e-06 0 0)
(-3.2076543 -0.32689691 0 8.0574303e-06 0 0)
(-3.2192764 -0.32766709 0 -7.6477716e-06 0 0)
(-3.2083941 -0.32694548 0 7.2565033e-06 0 0)
(-3.2185711 -0.32762099 0 -6.8964069e-06 0 0)
(-3.209061 -0.32698919 0 6.5556419e-06 0 0)
(-3.2179349 -0.32757946 0 -6.2413283e-06 0 0)
(-3.2096641 -0.32702864 0 5.9456964e-06 0 0)
(-3.2173588 -0.32754192 0 -5.6734231e-06 0 0)
(-3.2102116 -0.32706438 0 5.4187516e-06 0 0)
(-3.2168348 -0.32750785 0 -5.1851567e-06 0 0)
(-3.2107111 -0.32709689 0 4.9680633e-06 0 0)
(-3.2163557 -0.32747677 0 -4.7702625e-06 0 0)
(-3.2111693 -0.32712662 0 4.5879985e-06 0 0)
(-3.2159149 -0.32744828 0 -4.4236519e-06 0 0)
(-3.2115925 -0.32715397 0 4.2740185e-06 0 0)
(-3.2155064 -0.32742197 0 -4.1415397e-06 0 0)
(-3.2119865 -0.32717932 0 4.0230767e-06 0 0)
(-3.2151243 -0.32739748 0 -3.9206677e-06 0 0)
(-3.212357 -0.32720299 0 3.83764e-06 0 0)
(-3.2147639 -0.32737448 0 -3.7549794e-06 0 0)
(-3.2127122 -0.32722549 0 3.7189895e-06 0 0)
(-3.214425 -0.32735327 0 -3.7175849e-06 0 0)
(-3.2130563 -0.32724846 0 3.3993007e-06 0 0)
(-3.2140459 -0.32733493 0 -4.7123546e-06 0 0)
(-3.2131945 -0.32725288 0 4.2936554e-06 0 0)
(-2.7921767 -1.3220581 0 -0.53328261 0 0)
(-5.9129918 -0.53779789 0 -0.037873231 0 0)
(-4.440801 -0.45654592 0 -0.02011569 0 0)
(-3.8375487 -0.35597327 0 -0.0009711428 0 0)
(-3.298401 -0.33672793 0 -0.0019344582 0 0)
(-3.0813966 -0.32000878 0 -0.00011016831 0 0)
(-3.093279 -0.32224957 0 -0.00025262189 0 0)
(-3.0278108 -0.31783369 0 -0.00013266191 0 0)
(-3.0632275 -0.31994914 0 -5.7857542e-05 0 0)
(-3.0219964 -0.31722769 0 -2.1253179e-05 0 0)
(-3.0518868 -0.31917902 0 -1.9242216e-05 0 0)
(-3.0222815 -0.31719178 0 8.383036e-06 0 0)
(-3.048017 -0.31894469 0 -1.3710196e-05 0 0)
(-3.0236959 -0.31728276 0 1.2443314e-05 0 0)
(-3.0461712 -0.31883074 0 -1.2751901e-05 0 0)
(-3.0250094 -0.31737331 0 1.1799976e-05 0 0)
(-3.044821 -0.31874079 0 -1.1536459e-05 0 0)
(-3.0261641 -0.31745325 0 1.0669644e-05 0 0)
(-3.0436707 -0.31866219 0 -1.0257238e-05 0 0)
(-3.0271981 -0.31752476 0 9.5858876e-06 0 0)
(-3.0426622 -0.31859305 0 -9.1341793e-06 0 0)
(-3.0281258 -0.31758884 0 8.5970337e-06 0 0)
(-3.0417692 -0.31853183 0 -8.1634175e-06 0 0)
(-3.0289576 -0.31764621 0 7.7127731e-06 0 0)
(-3.0409735 -0.3184773 0 -7.3177107e-06 0 0)
(-3.029704 -0.31769762 0 6.929784e-06 0 0)
(-3.0402611 -0.31842851 0 -6.5778172e-06 0 0)
(-3.0303752 -0.31774378 0 6.2405785e-06 0 0)
(-3.0396209 -0.31838469 0 -5.9305849e-06 0 0)
(-3.0309801 -0.31778533 0 5.6370307e-06 0 0)
(-3.0390435 -0.3183452 0 -5.3662206e-06 0 0)
(-3.0315272 -0.31782284 0 5.111583e-06 0 0)
(-3.0385208 -0.3183095 0 -4.8769129e-06 0 0)
(-3.0320237 -0.31785682 0 4.6575619e-06 0 0)
(-3.0380456 -0.3182771 0 -4.4562014e-06 0 0)
(-3.0324764 -0.31788774 0 4.2692164e-06 0 0)
(-3.0376113 -0.31824754 0 -4.0987003e-06 0 0)
(-3.0328915 -0.31791602 0 3.9417138e-06 0 0)
(-3.037212 -0.31822043 0 -3.8000342e-06 0 0)
(-3.0332747 -0.31794205 0 3.6711398e-06 0 0)
(-3.0368421 -0.31819539 0 -3.556982e-06 0 0)
(-3.0336312 -0.31796617 0 3.4548749e-06 0 0)
(-3.0364964 -0.31817208 0 -3.3665536e-06 0 0)
(-3.0339661 -0.31798872 0 3.2960185e-06 0 0)
(-3.0361705 -0.31815015 0 -3.2212641e-06 0 0)
(-3.0342868 -0.31801013 0 3.197307e-06 0 0)
(-3.0358648 -0.31812995 0 -3.1961106e-06 0 0)
(-3.0346007 -0.3180324 0 2.8514349e-06 0 0)
(-3.0355346 -0.31811364 0 -4.2910822e-06 0 0)
(-3.0347648 -0.31803826 0 3.887977e-06 0 0)
(-2.7434283 -1.2254548 0 -0.46173171 0 0)
(-4.93908 -0.50957326 0 -0.040068102 0 0)
(-4.1671603 -0.45408987 0 -0.021704756 0 0)
(-3.5750398 -0.34671558 0 -0.0018816104 0 0)
(-3.1100902 -0.32870247 0 -0.0023943019 0 0)
(-2.9070512 -0.31077215 0 -0.00014721728 0 0)
(-2.9117319 -0.31271041 0 -0.00028196864 0 0)
(-2.8533118 -0.30857465 0 -0.0001496185 0 0)
(-2.8864898 -0.31060137 0 -5.8599119e-05 0 0)
(-2.8496648 -0.30806284 0 -2.7971609e-05 0 0)
(-2.876873 -0.3098975 0 -1.7383759e-05 0 0)
(-2.8501065 -0.30802206 0 5.6055444e-06 0 0)
(-2.8734269 -0.30967772 0 -1.1609206e-05 0 0)
(-2.8513663 -0.30810489 0 1.0528048e-05 0 0)
(-2.8717559 -0.30957126 0 -1.0959972e-05 0 0)
(-2.852544 -0.30819013 0 1.0124962e-05 0 0)
(-2.8705343 -0.30948671 0 -9.9758235e-06 0 0)
(-2.8535883 -0.3082658 0 9.1776891e-06 0 0)
(-2.8694923 -0.3094124 0 -8.866397e-06 0 0)
(-2.8545255 -0.30833352 0 8.2602216e-06 0 0)
(-2.8685773 -0.30934689 0 -7.8893936e-06 0 0)
(-2.855367 -0.30839425 0 7.4151687e-06 0 0)
(-2.8677664 -0.30928882 0 -7.0478915e-06 0 0)
(-2.8561219 -0.30844868 0 6.655024e-06 0 0)
(-2.8670434 -0.30923706 0 -6.3161951e-06 0 0)
(-2.8567997 -0.30849749 0 5.9798633e-06 0 0)
(-2.8663961 -0.30919071 0 -5.6764376e-06 0 0)
(-2.8574092 -0.30854133 0 5.3846734e-06 0 0)
(-2.8658143 -0.30914908 0 -5.1168613e-06 0 0)
(-2.8579586 -0.30858081 0 4.8630854e-06 0 0)
(-2.8652897 -0.30911156 0 -4.6289234e-06 0 0)
(-2.8584552 -0.30861645 0 4.4088491e-06 0 0)
(-2.864815 -0.30907764 0 -4.2058698e-06 0 0)
(-2.8589059 -0.30864875 0 4.0163076e-06 0 0)
(-2.8643836 -0.30904684 0 -3.842117e-06 0 0)
(-2.8593167 -0.30867814 0 3.6805238e-06 0 0)
(-2.8639896 -0.30901874 0 -3.5330003e-06 0 0)
(-2.8596931 -0.30870502 0 3.3973213e-06 0 0)
(-2.8636274 -0.30899297 0 -3.274727e-06 0 0)
(-2.8600405 -0.30872976 0 3.1632936e-06 0 0)
(-2.8632922 -0.30896917 0 -3.0645299e-06 0 0)
(-2.8603635 -0.3087527 0 2.9761449e-06 0 0)
(-2.862979 -0.30894699 0 -2.8996359e-06 0 0)
(-2.8606667 -0.30877414 0 2.8394032e-06 0 0)
(-2.8626838 -0.30892611 0 -2.7712656e-06 0 0)
(-2.8609566 -0.3087945 0 2.7573754e-06 0 0)
(-2.8624075 -0.30890687 0 -2.7542823e-06 0 0)
(-2.8612429 -0.308816 0 2.3910046e-06 0 0)
(-2.8621193 -0.30889225 0 -3.9110394e-06 0 0)
(-2.8614238 -0.30882312 0 3.518262e-06 0 0)
(-2.7572959 -1.1978984 0 -0.43976054 0 0)
(-3.993498 -0.4814701 0 -0.044962728 0 0)
(-3.8271216 -0.43916705 0 -0.021151829 0 0)
(-3.3395433 -0.34566411 0 -0.0045108443 0 0)
(-2.9490529 -0.32260366 0 -0.0030527984 0 0)
(-2.7448291 -0.3019888 0 -0.00023144553 0 0)
(-2.7400176 -0.30337282 0 -0.00032186822 0 0)
(-2.6843652 -0.29930448 0 -0.00016420705 0 0)
(-2.7153394 -0.3012552 0 -5.8443938e-05 0 0)
(-2.6823444 -0.29889125 0 -3.3483241e-05 0 0)
(-2.7071169 -0.30061804 0 -1.5664561e-05 0 0)
(-2.6829079 -0.29884989 0 3.212561e-06 0 0)
(-2.7040541 -0.30041297 0 -9.751008e-06 0 0)
(-2.6840337 -0.29892536 0 8.8689007e-06 0 0)
(-2.7025404 -0.3003135 0 -9.3801511e-06 0 0)
(-2.6850887 -0.29900548 0 8.6616771e-06 0 0)
(-2.701433 -0.30023401 0 -8.6028585e-06 0 0)
(-2.6860332 -0.29907705 0 7.8683543e-06 0 0)
(-2.700488 -0.30016379 0 -7.6438064e-06 0 0)
(-2.6868833 -0.29914117 0 7.095115e-06 0 0)
(-2.6996573 -0.30010175 0 -6.7950369e-06 0 0)
(-2.6876472 -0.29919872 0 6.3758593e-06 0 0)
(-2.6989203 -0.30004669 0 -6.0668286e-06 0 0)
(-2.6883329 -0.29925033 0 5.7245695e-06 0 0)
(-2.6982631 -0.29999758 0 -5.4351632e-06 0 0)
(-2.6889488 -0.29929664 0 5.1441136e-06 0 0)
(-2.6976744 -0.2999536 0 -4.8833868e-06 0 0)
(-2.6895026 -0.29933825 0 4.6315916e-06 0 0)
(-2.6971455 -0.29991407 0 -4.4009139e-06 0 0)
(-2.6900018 -0.29937573 0 4.1821345e-06 0 0)
(-2.6966687 -0.29987845 0 -3.9802541e-06 0 0)
(-2.6904529 -0.29940957 0 3.7906053e-06 0 0)
(-2.6962374 -0.29984624 0 -3.6155497e-06 0 0)
(-2.6908622 -0.29944023 0 3.4522165e-06 0 0)
(-2.6958455 -0.29981699 0 -3.3019673e-06 0 0)
(-2.6912351 -0.29946813 0 3.1627309e-06 0 0)
(-2.6954877 -0.29979032 0 -3.0354643e-06 0 0)
(-2.6915767 -0.29949366 0 2.9185398e-06 0 0)
(-2.6951591 -0.29976584 0 -2.8127513e-06 0 0)
(-2.6918918 -0.29951716 0 2.7166765e-06 0 0)
(-2.694855 -0.29974323 0 -2.6314511e-06 0 0)
(-2.6921847 -0.29953896 0 2.5551138e-06 0 0)
(-2.6945711 -0.29972215 0 -2.4889966e-06 0 0)
(-2.6924594 -0.29955934 0 2.4376673e-06 0 0)
(-2.6943035 -0.29970229 0 -2.375528e-06 0 0)
(-2.6927217 -0.29957867 0 2.3702712e-06 0 0)
(-2.6940535 -0.29968398 0 -2.3644425e-06 0 0)
(-2.6929827 -0.29959935 0 1.9895326e-06 0 0)
(-2.6938017 -0.29967077 0 -3.5521827e-06 0 0)
(-2.6931736 -0.29960755 0 3.1719681e-06 0 0)
(-2.8020135 -1.1366392 0 -0.39331883 0 0)
(-3.3111271 -0.45950843 0 -0.047148875 0 0)
(-3.4951557 -0.41788773 0 -0.019327915 0 0)
(-3.0490125 -0.33781339 0 -0.0064361407 0 0)
(-2.767062 -0.31397498 0 -0.0033576519 0 0)
(-2.5772153 -0.29265198 0 -0.00029958581 0 0)
(-2.569788 -0.29383574 0 -0.00035247682 0 0)
(-2.5202398 -0.2900209 0 -0.00017274037 0 0)
(-2.54901 -0.29188767 0 -5.7393026e-05 0 0)
(-2.5197656 -0.28970471 0 -3.768968e-05 0 0)
(-2.5424509 -0.29133588 0 -1.3987384e-05 0 0)
(-2.5206262 -0.28967284 0 1.1588501e-06 0 0)
(-2.5398463 -0.29114921 0 -8.0739974e-06 0 0)
(-2.521692 -0.28974355 0 7.4146087e-06 0 0)
(-2.5385028 -0.29105716 0 -7.9638998e-06 0 0)
(-2.5226506 -0.28981924 0 7.3649999e-06 0 0)
(-2.5375045 -0.29098263 0 -7.3749427e-06 0 0)
(-2.523508 -0.28988701 0 6.7018866e-06 0 0)
(-2.5366483 -0.29091634 0 -6.551629e-06 0 0)
(-2.5242801 -0.28994772 0 6.0551196e-06 0 0)
(-2.5358939 -0.29085762 0 -5.8174839e-06 0 0)
(-2.5249741 -0.29000223 0 5.4474399e-06 0 0)
(-2.535224 -0.29080544 0 -5.1902539e-06 0 0)
(-2.5255972 -0.29005115 0 4.8930955e-06 0 0)
(-2.5346263 -0.29075888 0 -4.6478013e-06 0 0)
(-2.5261569 -0.29009507 0 4.3971531e-06 0 0)
(-2.5340909 -0.29071716 0 -4.1745906e-06 0 0)
(-2.5266603 -0.29013454 0 3.9584977e-06 0 0)
(-2.53361 -0.29067966 0 -3.7610407e-06 0 0)
(-2.5271139 -0.29017008 0 3.573545e-06 0 0)
(-2.5331765 -0.29064587 0 -3.4005591e-06 0 0)
(-2.5275238 -0.29020218 0 3.2381182e-06 0 0)
(-2.5327845 -0.29061531 0 -3.0880613e-06 0 0)
(-2.5278956 -0.29023127 0 2.9481855e-06 0 0)
(-2.5324285 -0.29058757 0 -2.8193688e-06 0 0)
(-2.5282341 -0.29025774 0 2.7001237e-06 0 0)
(-2.5321037 -0.29056226 0 -2.5909863e-06 0 0)
(-2.5285442 -0.29028196 0 2.4908252e-06 0 0)
(-2.5318054 -0.29053904 0 -2.4000691e-06 0 0)
(-2.5288301 -0.29030426 0 2.3177134e-06 0 0)
(-2.5315295 -0.29051758 0 -2.244582e-06 0 0)
(-2.5290957 -0.29032495 0 2.1789918e-06 0 0)
(-2.531272 -0.29049756 0 -2.1221614e-06 0 0)
(-2.5293447 -0.2903443 0 2.0786435e-06 0 0)
(-2.5310294 -0.29047869 0 -2.0220952e-06 0 0)
(-2.529582 -0.29036263 0 2.0241847e-06 0 0)
(-2.5308029 -0.29046127 0 -2.0153302e-06 0 0)
(-2.5298198 -0.29038247 0 1.6348402e-06 0 0)
(-2.5305828 -0.29044926 0 -3.2081447e-06 0 0)
(-2.5300157 -0.29039159 0 2.847022e-06 0 0)
(-2.9292279 -1.0850048 0 -0.34292529 0 0)
(-2.8587166 -0.42991618 0 -0.046219757 0 0)
(-3.1814723 -0.41074835 0 -0.023035215 0 0)
(-2.7574378 -0.32921355 0 -0.0085840371 0 0)
(-2.594591 -0.30502959 0 -0.0034501862 0 0)
(-2.4206678 -0.2838165 0 -0.00044315858 0 0)
(-2.408556 -0.28445787 0 -0.00038914651 0 0)
(-2.3618706 -0.28072967 0 -0.00017720022 0 0)
(-2.3883914 -0.28252458 0 -5.4554039e-05 0 0)
(-2.3623402 -0.28051181 0 -4.0329773e-05 0 0)
(-2.3830655 -0.28205582 0 -1.2104554e-05 0 0)
(-2.3633722 -0.28049321 0 -5.2086389e-07 0 0)
(-2.3808362 -0.28188754 0 -6.5257954e-06 0 0)
(-2.3643733 -0.28056006 0 6.1432193e-06 0 0)
(-2.379642 -0.2818025 0 -6.6879417e-06 0 0)
(-2.3652439 -0.28063157 0 6.2111884e-06 0 0)
(-2.3787412 -0.28173261 0 -6.2723452e-06 0 0)
(-2.3660222 -0.28069573 0 5.6582091e-06 0 0)
(-2.3779652 -0.28167004 0 -5.5718106e-06 0 0)
(-2.3667237 -0.28075321 0 5.1228551e-06 0 0)
(-2.3772801 -0.28161447 0 -4.9405276e-06 0 0)
(-2.3673543 -0.28080483 0 4.6145721e-06 0 0)
(-2.3766712 -0.28156506 0 -4.4037204e-06 0 0)
(-2.3679205 -0.28085117 0 4.1469602e-06 0 0)
(-2.3761277 -0.28152093 0 -3.9412135e-06 0 0)
(-2.3684292 -0.28089278 0 3.7267872e-06 0 0)
(-2.3756409 -0.28148138 0 -3.5384912e-06 0 0)
(-2.3688866 -0.28093019 0 3.3544369e-06 0 0)
(-2.3752037 -0.28144584 0 -3.1868322e-06 0 0)
(-2.3692987 -0.28096388 0 3.027426e-06 0 0)
(-2.3748097 -0.28141382 0 -2.8804146e-06 0 0)
(-2.3696711 -0.2809943 0 2.7424093e-06 0 0)
(-2.3744536 -0.28138485 0 -2.614826e-06 0 0)
(-2.3700086 -0.28102187 0 2.4960168e-06 0 0)
(-2.3741303 -0.28135856 0 -2.3864644e-06 0 0)
(-2.3703159 -0.28104696 0 2.2851692e-06 0 0)
(-2.3738354 -0.28133457 0 -2.1923216e-06 0 0)
(-2.3705973 -0.28106991 0 2.107206e-06 0 0)
(-2.3735647 -0.28131256 0 -2.0299496e-06 0 0)
(-2.3708566 -0.28109105 0 1.9599003e-06 0 0)
(-2.3733144 -0.2812922 0 -1.8976163e-06 0 0)
(-2.3710975 -0.28111067 0 1.8416579e-06 0 0)
(-2.3730809 -0.28127322 0 -1.7931599e-06 0 0)
(-2.3713231 -0.28112903 0 1.7565254e-06 0 0)
(-2.3728609 -0.2812553 0 -1.7052487e-06 0 0)
(-2.3715379 -0.28114641 0 1.713468e-06 0 0)
(-2.3726557 -0.28123874 0 -1.7016643e-06 0 0)
(-2.3717544 -0.28116537 0 1.320819e-06 0 0)
(-2.3724634 -0.28122775 0 -2.8775252e-06 0 0)
(-2.3719513 -0.28117526 0 2.5439476e-06 0 0)
(-2.9657034 -1.0304003 0 -0.30756332 0 0)
(-2.5217093 -0.40849882 0 -0.045686231 0 0)
(-2.8999262 -0.39217461 0 -0.022322062 0 0)
(-2.5198425 -0.31724126 0 -0.0090027552 0 0)
(-2.4294006 -0.29466008 0 -0.0031758377 0 0)
(-2.2704267 -0.27491374 0 -0.00057549982 0 0)
(-2.253965 -0.27507116 0 -0.0004099939 0 0)
(-2.2090304 -0.27142257 0 -0.00017211126 0 0)
(-2.2331306 -0.27315255 0 -4.8353553e-05 0 0)
(-2.2099096 -0.27130624 0 -4.0753005e-05 0 0)
(-2.228848 -0.27277388 0 -9.7171029e-06 0 0)
(-2.211101 -0.27130887 0 -1.7506839e-06 0 0)
(-2.2269817 -0.27262659 0 -5.0400523e-06 0 0)
(-2.2120695 -0.27137424 0 5.0495193e-06 0 0)
(-2.2259392 -0.27254905 0 -5.5249991e-06 0 0)
(-2.2128716 -0.27144234 0 5.1844461e-06 0 0)
(-2.2251328 -0.27248377 0 -5.2763957e-06 0 0)
(-2.2135818 -0.27150322 0 4.7216178e-06 0 0)
(-2.2244314 -0.2724248 0 -4.688772e-06 0 0)
(-2.2142201 -0.27155766 0 4.2840987e-06 0 0)
(-2.22381 -0.27237227 0 -4.1505761e-06 0 0)
(-2.2147932 -0.27160653 0 3.8645638e-06 0 0)
(-2.2232568 -0.27232549 0 -3.6952146e-06 0 0)
(-2.2153077 -0.27165041 0 3.4748506e-06 0 0)
(-2.2227629 -0.2722837 0 -3.304701e-06 0 0)
(-2.2157697 -0.27168982 0 3.1229001e-06 0 0)
(-2.2223205 -0.27224625 0 -2.9655034e-06 0 0)
(-2.2161851 -0.27172524 0 2.8103211e-06 0 0)
(-2.2219233 -0.2722126 0 -2.6696551e-06 0 0)
(-2.2165593 -0.27175714 0 2.5355697e-06 0 0)
(-2.2215655 -0.27218227 0 -2.412003e-06 0 0)
(-2.2168973 -0.27178594 0 2.296026e-06 0 0)
(-2.2212421 -0.27215485 0 -2.1887262e-06 0 0)
(-2.2172036 -0.27181204 0 2.0889056e-06 0 0)
(-2.2209487 -0.27212995 0 -1.9967361e-06 0 0)
(-2.2174825 -0.2718358 0 1.9116161e-06 0 0)
(-2.2206811 -0.27210723 0 -1.8334623e-06 0 0)
(-2.2177377 -0.27185753 0 1.7618997e-06 0 0)
(-2.2204355 -0.27208638 0 -1.6968148e-06 0 0)
(-2.2179728 -0.27187756 0 1.6378466e-06 0 0)
(-2.2202086 -0.2720671 0 -1.5853325e-06 0 0)
(-2.218191 -0.27189615 0 1.5380449e-06 0 0)
(-2.219997 -0.27204912 0 -1.4970557e-06 0 0)
(-2.2183954 -0.27191354 0 1.4665173e-06 0 0)
(-2.2197976 -0.27203212 0 -1.4202659e-06 0 0)
(-2.2185897 -0.27193 0 1.4334815e-06 0 0)
(-2.2196117 -0.27201638 0 -1.4190897e-06 0 0)
(-2.2187865 -0.27194807 0 1.0424444e-06 0 0)
(-2.2194439 -0.27200626 0 -2.5593361e-06 0 0)
(-2.2189817 -0.2719586 0 2.262729e-06 0 0)
(-3.0715039 -0.99997144 0 -0.27732947 0 0)
(-2.2935005 -0.39481973 0 -0.046053461 0 0)
(-2.6746981 -0.3773737 0 -0.022341989 0 0)
(-2.3348301 -0.30632813 0 -0.0091753701 0 0)
(-2.2753505 -0.28421875 0 -0.0028546666 0 0)
(-2.1252905 -0.26577485 0 -0.00063375372 0 0)
(-2.1058385 -0.26564067 0 -0.00039867138 0 0)
(-2.0624057 -0.26212435 0 -0.00015539061 0 0)
(-2.0836209 -0.26378268 0 -3.8233797e-05 0 0)
(-2.0627847 -0.2620959 0 -3.8708515e-05 0 0)
(-2.0799669 -0.26349389 0 -6.5229652e-06 0 0)
(-2.0639267 -0.26212228 0 -2.4340399e-06 0 0)
(-2.0783307 -0.26336753 0 -3.5321427e-06 0 0)
(-2.064819 -0.26218689 0 4.1400576e-06 0 0)
(-2.0774024 -0.26329711 0 -4.4464938e-06 0 0)
(-2.0655488 -0.26225182 0 4.2719276e-06 0 0)
(-2.0766766 -0.26323616 0 -4.3704078e-06 0 0)
(-2.0661948 -0.26230959 0 3.8779934e-06 0 0)
(-2.0760422 -0.2631806 0 -3.8889265e-06 0 0)
(-2.066775 -0.26236114 0 3.5261146e-06 0 0)
(-2.0754788 -0.26313097 0 -3.4357026e-06 0 0)
(-2.0672955 -0.26240738 0 3.1861386e-06 0 0)
(-2.0749767 -0.26308672 0 -3.0541396e-06 0 0)
(-2.0677626 -0.2624489 0 2.8667429e-06 0 0)
(-2.0745283 -0.26304718 0 -2.7288021e-06 0 0)
(-2.0681819 -0.26248619 0 2.5765284e-06 0 0)
(-2.0741266 -0.26301175 0 -2.4471376e-06 0 0)
(-2.0685588 -0.2625197 0 2.3180903e-06 0 0)
(-2.0737661 -0.26297991 0 -2.2018533e-06 0 0)
(-2.0688983 -0.26254987 0 2.090691e-06 0 0)
(-2.0734414 -0.26295122 0 -1.9883854e-06 0 0)
(-2.0692048 -0.26257712 0 1.892349e-06 0 0)
(-2.0731481 -0.26292527 0 -1.8034398e-06 0 0)
(-2.0694825 -0.26260181 0 1.720805e-06 0 0)
(-2.072882 -0.26290172 0 -1.644391e-06 0 0)
(-2.0697353 -0.26262428 0 1.5739065e-06 0 0)
(-2.0726394 -0.26288023 0 -1.5090663e-06 0 0)
(-2.0699665 -0.26264484 0 1.449763e-06 0 0)
(-2.0724169 -0.26286051 0 -1.3957022e-06 0 0)
(-2.0701795 -0.26266379 0 1.346755e-06 0 0)
(-2.0722113 -0.26284226 0 -1.3030822e-06 0 0)
(-2.0703772 -0.26268138 0 1.2636388e-06 0 0)
(-2.0720196 -0.26282524 0 -1.229449e-06 0 0)
(-2.0705622 -0.26269785 0 1.204341e-06 0 0)
(-2.0718391 -0.26280913 0 -1.1629238e-06 0 0)
(-2.0707377 -0.26271342 0 1.1800879e-06 0 0)
(-2.0716706 -0.26279419 0 -1.1636685e-06 0 0)
(-2.0709165 -0.2627306 0 7.9519381e-07 0 0)
(-2.0715244 -0.2627848 0 -2.2525944e-06 0 0)
(-2.0711076 -0.26274164 0 2.0028039e-06 0 0)
(-3.0892564 -0.93512903 0 -0.23983022 0 0)
(-2.1480505 -0.36773915 0 -0.040289108 0 0)
(-2.4957695 -0.35713625 0 -0.019770795 0 0)
(-2.1876708 -0.2948068 0 -0.0086334183 0 0)
(-2.1354858 -0.27408449 0 -0.0025344922 0 0)
(-1.9882341 -0.25656772 0 -0.0006119415 0 0)
(-1.9654494 -0.25625492 0 -0.00035726898 0 0)
(-1.9219832 -0.25284528 0 -0.00012837519 0 0)
(-1.9398189 -0.25442355 0 -2.4371014e-05 0 0)
(-1.9209231 -0.25288262 0 -3.4054998e-05 0 0)
(-1.9363783 -0.25421602 0 -2.3377398e-06 0 0)
(-1.9218342 -0.25293336 0 -2.5121478e-06 0 0)
(-1.9348616 -0.25410998 0 -1.9418734e-06 0 0)
(-1.92262 -0.25299785 0 3.419967e-06 0 0)
(-1.9340204 -0.2540464 0 -3.4262725e-06 0 0)
(-1.9232781 -0.25305998 0 3.4656712e-06 0 0)
(-1.9333658 -0.25398963 0 -3.5387225e-06 0 0)
(-1.923865 -0.25311486 0 3.1169814e-06 0 0)
(-1.9327926 -0.25393736 0 -3.1604004e-06 0 0)
(-1.9243923 -0.25316368 0 2.8388683e-06 0 0)
(-1.9322825 -0.25389052 0 -2.7859136e-06 0 0)
(-1.9248648 -0.25320742 0 2.5701661e-06 0 0)
(-1.9318274 -0.25384871 0 -2.4717518e-06 0 0)
(-1.9252884 -0.25324667 0 2.3144428e-06 0 0)
(-1.9314207 -0.25381134 0 -2.2057401e-06 0 0)
(-1.9256686 -0.25328192 0 2.0803194e-06 0 0)
(-1.9310566 -0.25377784 0 -1.976417e-06 0 0)
(-1.9260102 -0.25331359 0 1.8711223e-06 0 0)
(-1.9307297 -0.25374775 0 -1.7771304e-06 0 0)
(-1.9263178 -0.25334211 0 1.6867973e-06 0 0)
(-1.9304355 -0.25372064 0 -1.6038504e-06 0 0)
(-1.9265954 -0.25336785 0 1.5259292e-06 0 0)
(-1.9301697 -0.25369612 0 -1.4537597e-06 0 0)
(-1.9268469 -0.25339118 0 1.3867332e-06 0 0)
(-1.9299287 -0.25367387 0 -1.3246553e-06 0 0)
(-1.9270757 -0.25341241 0 1.2674594e-06 0 0)
(-1.929709 -0.25365356 0 -1.2147294e-06 0 0)
(-1.927285 -0.25343184 0 1.1665539e-06 0 0)
(-1.9295076 -0.25363491 0 -1.122518e-06 0 0)
(-1.9274777 -0.25344975 0 1.0826659e-06 0 0)
(-1.9293216 -0.25361767 0 -1.0470276e-06 0 0)
(-1.9276565 -0.25346639 0 1.0147097e-06 0 0)
(-1.9291483 -0.25360157 0 -9.8670148e-07 0 0)
(-1.9278238 -0.25348196 0 9.664557e-07 0 0)
(-1.9289849 -0.25358632 0 -9.2971586e-07 0 0)