/*--------------------------------*- C++ -*----------------------------------*\
| =========                 |                                                 |
| \\      /  F ield         | OpenFOAM: The Open Source CFD Toolbox           |
|  \\    /   O peration     | Version:  2312                                  |
|   \\  /    A nd           | Website:  www.openfoam.com                      |
|    \\/     M anipulation  |                                                 |
\*---------------------------------------------------------------------------*/
FoamFile
{
    version     2.0;
    format      ascii;
    arch        "LSB;label=32;scalar=64";
    class       volScalarField;
    location    "7";
    object      T;
}
// * * * * * * * * * * * * * * * * * * * * * * * * * * * * * * * * * * * * * //

dimensions      [0 0 0 1 0 0 0];

internalField   nonuniform List<scalar> 
4000
(
325.20513
324.06247
323.8333
323.76602
323.68902
323.63549
323.58364
323.53746
323.49258
323.4509
323.40915
323.36976
323.32995
323.29188
323.25342
323.21621
323.17875
323.14211
323.10543
323.06921
323.03313
322.99721
322.96163
322.92593
322.89077
322.85524
322.82043
322.78502
322.75051
322.7152
322.68096
322.64571
322.61172
322.5765
322.54274
322.50754
322.47399
322.43878
322.40544
322.3702
322.33707
322.30177
322.26887
322.23346
322.20083
322.16525
322.13296
322.09707
322.06539
322.02827
327.13857
325.29888
324.68765
324.55202
324.3885
324.29481
324.2063
324.13466
324.06702
324.00888
323.95062
323.89937
323.8469
323.79962
323.7512
323.70648
323.66106
323.61807
323.57496
323.53323
323.49194
323.45111
323.41132
323.37116
323.3326
323.29295
323.25545
323.21617
323.17959
323.14057
323.10481
323.06598
323.03095
322.99223
322.95788
322.9192
322.8855
322.8468
322.81373
322.77492
322.74249
322.70351
322.67176
322.63247
322.6015
322.56171
322.53177
322.49102
322.46291
322.41865
328.33189
326.48739
325.53474
325.33243
325.08467
324.9513
324.82669
324.72974
324.63963
324.56507
324.49048
324.42737
324.36238
324.30588
324.24762
324.19535
324.14207
324.09271
324.04325
323.99597
323.94954
323.90378
323.85982
323.81518
323.77328
323.72948
323.68934
323.64616
323.60754
323.56481
323.52754
323.48512
323.44908
323.40684
323.37193
323.32976
323.29593
323.25372
323.22094
323.17857
323.14685
323.10417
323.07359
323.0304
323.00112
322.9571
322.92952
322.88392
322.85936
322.80835
329.12211
327.58784
326.3622
326.09965
325.77274
325.60129
325.44194
325.32021
325.20831
325.11751
325.02703
324.95213
324.87494
324.80924
324.74136
324.68156
324.62059
324.56485
324.5092
324.45635
324.40491
324.35419
324.30617
324.25703
324.21188
324.16391
324.1212
324.0741
324.03351
323.98704
323.94833
323.9023
323.8653
323.81952
323.7841
323.73843
323.7045
323.65878
323.62631
323.58036
323.54938
323.50301
323.47361
323.42653
323.39894
323.35071
323.32548
323.27508
323.25395
323.19677
329.66891
328.56359
327.15398
326.84355
326.4462
326.23983
326.04816
325.90278
325.77026
325.6637
325.55806
325.47161
325.38273
325.30794
325.23085
325.16357
325.09523
325.03312
324.97152
324.91312
324.85686
324.80118
324.74928
324.69561
324.64735
324.5952
324.55004
324.49901
324.45655
324.40634
324.36627
324.31662
324.27873
324.22941
324.19353
324.14436
324.11038
324.06114
324.02903
323.97952
323.9493
323.89924
323.87104
323.82009
323.7942
323.74179
323.71888
323.66378
323.64591
323.58321
330.05992
329.39337
327.89351
327.55233
327.09724
326.86096
326.64064
326.47349
326.32215
326.20064
326.08095
325.98338
325.88358
325.79996
325.71422
325.63961
325.56433
325.49596
325.42875
325.36485
325.30405
325.24345
325.18789
325.12974
325.07855
325.02224
324.97478
324.91984
324.87564
324.82169
324.78038
324.72712
324.68843
324.63559
324.59933
324.54666
324.5127
324.45997
324.42827
324.3752
324.34578
324.29207
324.26509
324.21031
324.18611
324.1296
324.10894
324.0493
324.03441
323.96692
330.34532
330.0661
328.56576
328.21376
327.71744
327.45803
327.21402
327.02788
326.86013
326.72496
326.5927
326.48473
326.37504
326.28302
326.18937
326.10772
326.02607
325.95163
325.87926
325.81
325.74503
325.6796
325.62067
325.5581
325.50423
325.44381
325.39427
325.33545
325.28968
325.23203
325.18962
325.13279
325.09342
325.03708
325.00054
324.94441
324.91056
324.85436
324.82312
324.76655
324.73798
324.68066
324.65492
324.59639
324.57385
324.51335
324.49486
324.43091
324.41867
324.34709
330.55764
330.58505
329.15988
328.81658
328.29853
328.02421
327.76266
327.56117
327.38008
327.23302
327.09007
326.97271
326.85442
326.75465
326.65405
326.56579
326.47849
326.39826
326.3213
326.2469
326.17819
326.1081
326.04617
325.97931
325.92306
325.85863
325.80725
325.74465
325.69752
325.63625
325.59291
325.53256
325.49266
325.43289
325.39618
325.33666
325.30299
325.2434
325.2127
325.15269
325.125
325.06418
325.03968
324.97751
324.9566
324.89228
324.87582
324.80786
324.7979
324.72287
330.71868
330.9631
329.66977
329.35207
328.83318
328.55294
328.28097
328.06854
327.87774
327.72103
327.56967
327.44426
327.31893
327.21228
327.10585
327.01157
326.91949
326.83391
326.75303
326.6738
326.6019
326.52739
326.46289
326.39193
326.33366
326.26539
326.21246
326.1462
326.09795
326.03317
325.9891
325.92536
325.88508
325.82198
325.78524
325.72243
325.68904
325.62616
325.59606
325.53274
325.50596
325.44176
325.41849
325.35285
325.3335
325.26559
325.25099
325.1794
325.1713
325.09343
330.84355
331.22067
330.09481
329.81518
329.31564
329.0385
328.76378
328.54538
328.34899
328.18531
328.02813
327.8963
327.76574
327.65327
327.54236
327.44281
327.34695
327.25657
327.17255
327.08891
327.01445
326.93585
326.86928
326.79449
326.7346
326.6627
326.60856
326.53884
326.48974
326.42163
326.37705
326.31007
326.2696
326.20332
326.16668
326.10072
326.06772
326.0017
325.97227
325.90579
325.87996
325.81255
325.7905
325.7216
325.70372
325.6325
325.61957
325.54474
325.53813
325.45794
330.9432
331.38199
330.43893
330.20496
329.74212
329.47644
329.20674
328.98763
328.79001
328.62237
328.46224
328.32586
328.19209
328.07509
327.96116
327.85727
327.75875
327.66426
327.57798
327.49046
327.41412
327.33185
327.26378
327.1855
327.12445
327.04922
326.99423
326.9213
326.87167
326.80044
326.7556
326.68557
326.64511
326.57584
326.53946
326.47054
326.43805
326.36907
326.34039
326.27094
326.24609
326.17569
326.15483
326.08292
326.06642
325.9922
325.98074
325.90312
325.89765
325.81559
331.025
331.47197
330.71009
330.52424
330.11102
329.86397
329.6066
329.39202
329.19759
329.02917
328.8691
328.73026
328.59541
328.47533
328.35999
328.25281
328.15285
328.05505
327.96746
327.87669
327.79924
327.71381
327.64485
327.5635
327.50179
327.42358
327.36817
327.29233
327.24249
327.16843
327.1236
327.05078
327.01054
326.93852
326.90257
326.83091
326.79905
326.72735
326.69948
326.62731
326.60345
326.53033
326.51063
326.436
326.42077
326.34392
326.33371
326.25376
326.24913
326.1656
331.09446
331.51387
330.91847
330.77885
330.42309
330.20014
329.96148
329.75625
329.56926
329.40327
329.24627
329.10715
328.97345
328.85186
328.73677
328.62747
328.52737
328.42716
328.33929
328.24597
328.16823
328.08022
328.01103
327.9271
327.86527
327.78449
327.72909
327.65072
327.60103
327.52445
327.47993
327.40462
327.36484
327.29034
327.25499
327.18088
327.14977
327.07562
327.04864
326.97402
326.95118
326.87564
326.85706
326.78005
326.76598
326.6869
326.67772
326.5959
326.59186
326.50721
331.15487
331.52678
331.07536
330.97672
330.68124
330.48593
330.27094
330.07922
329.90346
329.74296
329.59193
329.45471
329.32435
329.20286
329.08972
328.97954
328.88063
328.77898
328.69188
328.59681
328.51963
328.42968
328.36095
328.27499
328.2136
328.13074
328.0758
327.99531
327.94615
327.86744
327.82352
327.74607
327.70698
327.63034
327.59577
327.51952
327.48928
327.413
327.38698
327.31025
327.28844
327.21082
327.19331
327.11431
327.10128
327.02037
327.01206
326.9288
326.92517
326.83971
331.20879
331.52545
331.19173
331.1269
330.89018
330.72402
330.53599
330.36101
330.19965
330.04736
329.90493
329.77169
329.64675
329.52696
329.41742
329.30763
329.21121
329.10916
329.02388
328.9279
328.85213
328.76095
328.69339
328.606
328.54563
328.46119
328.4072
328.32506
328.27681
328.19639
328.15337
328.07418
328.03602
327.95761
327.92401
327.84597
327.81674
327.73868
327.71369
327.63521
327.61445
327.53512
327.51863
327.43803
327.42593
327.34363
327.33602
327.25175
327.2484
327.16244
331.25749
331.51952
331.27763
331.2387
331.05593
330.91852
330.759
330.60288
330.4583
330.31647
330.18486
330.05746
329.93983
329.82328
329.71887
329.61071
329.51806
329.41662
329.3342
329.23818
329.16466
329.07299
329.00729
328.9191
328.86032
328.77489
328.72231
328.63902
328.59206
328.51039
328.4686
328.38808
328.3511
328.27132
328.23887
328.15945
328.13134
328.05188
328.02801
327.94815
327.92846
327.84782
327.83232
327.75053
327.73928
327.65601
327.64898
327.5641
327.56095
327.47476
331.30207
331.51493
331.34154
331.32093
331.18512
331.07451
330.94341
330.80713
330.68083
330.55111
330.43207
330.3121
330.20336
330.09142
329.99353
329.88819
329.80045
329.70064
329.62203
329.52683
329.45638
329.36497
329.3018
329.21347
329.15685
329.07099
329.0203
328.93638
328.89111
328.80866
328.76841
328.68702
328.65146
328.57074
328.53963
328.45922
328.43237
328.35193
328.32923
328.24842
328.2298
328.14828
328.13373
328.05119
328.04069
327.95689
327.95034
327.86525
327.86224
327.77611
331.34295
331.51424
331.39024
331.38133
331.28451
331.1976
331.09344
330.97693
330.86952
330.7529
330.64763
330.53629
330.43771
330.33155
330.24133
330.13987
330.05806
329.96082
329.88691
329.79336
329.72672
329.6363
329.5763
329.48849
329.43455
329.34887
329.3005
329.2165
329.17327
329.09057
329.05214
328.97035
328.93645
328.85524
328.82564
328.74469
328.71922
328.63822
328.61677
328.53542
328.51791
328.43592
328.4223
328.33943
328.32964
328.24572
328.23958
328.15464
328.15175
328.06598
331.38063
331.51818
331.42881
331.42631
331.36045
331.29351
331.21378
331.116
331.02727
330.92413
330.83323
330.73133
330.64378
330.54432
330.46267
330.366
330.29096
330.19714
330.12869
330.03756
329.97539
329.88667
329.8304
329.74376
329.69299
329.60808
329.56243
329.47891
329.43806
329.3556
329.31928
329.23758
329.20554
329.12432
329.09638
329.01535
328.99136
328.91025
328.8901
328.80866
328.79227
328.71026
328.69755
328.61478
328.60564
328.522
328.51624
328.4318
328.42903
328.3439
331.41531
331.52612
331.46083
331.46087
331.41858
331.36765
331.3092
331.22844
331.15745
331.06756
330.99109
330.89902
330.82298
330.73087
330.65841
330.56724
330.49963
330.40994
330.34755
330.25954
330.2024
330.11604
330.06399
329.97913
329.93195
329.84837
329.80582
329.7233
329.68514
329.60344
329.56947
329.48834
329.45837
329.37759
329.35147
329.2708
329.2484
329.16762
329.14885
329.06774
329.0525
328.97088
328.95907
328.87681
328.86831
328.78535
328.77994
328.69634
328.6937
328.60951
331.4473
331.53711
331.48866
331.48863
331.46361
331.42491
331.38431
331.31837
331.26366
331.18627
331.1238
331.04156
330.97712
330.8927
330.82978
330.74463
330.68487
330.5999
330.54403
330.45973
330.40805
330.32462
330.27719
330.19467
330.15144
330.06974
330.03058
329.94958
329.91438
329.83392
329.80251
329.72243
329.6947
329.61482
329.59065
329.51078
329.49007
329.41005
329.3927
329.31236
329.29829
329.21748
329.20658
329.12523
329.11735
329.03543
329.03037
328.94793
328.94544
328.86248
331.47679
331.55001
331.51373
331.51212
331.49933
331.46947
331.44333
331.38978
331.34952
331.2835
331.23417
331.16143
331.10832
331.03168
330.97834
330.89951
330.84782
330.76799
330.71892
330.6388
330.59289
330.51289
330.47038
330.39069
330.35168
330.27235
330.23684
330.15784
330.12579
330.04704
330.01839
329.9398
329.91446
329.83591
329.8138
329.73517
329.71622
329.63737
329.62151
329.54233
329.52946
329.44986
329.43987
329.3598
329.35255
329.27201
329.26732
329.18636
329.18403
329.10258
331.50403
331.56394
331.53685
331.53295
331.52855
331.50473
331.4899
331.44633
331.41848
331.36248
331.32512
331.26125
331.21891
331.14987
331.1059
331.03351
330.98987
330.91544
330.87329
330.79771
330.75773
330.68156
330.64416
330.56772
330.53314
330.45659
330.42492
330.34833
330.31961
330.24299
330.21723
330.14055
330.11771
330.0409
330.02095
329.94395
329.92683
329.84956
329.8352
329.75759
329.74593
329.66791
329.65884
329.58041
329.5738
329.49497
329.49066
329.41146
329.40931
329.32967
331.52921
331.57821
331.55845
331.55209
331.55333
331.53332
331.52708
331.49123
331.47373
331.42624
331.3995
331.34368
331.31129
331.24949
331.21444
331.1484
331.11262
331.04371
331.00841
330.9376
330.90359
330.83154
330.79934
330.72649
330.69642
330.62303
330.59529
330.5215
330.49622
330.42211
330.39932
330.32493
330.30467
330.22999
330.21225
330.13726
330.122
330.04667
330.03387
329.95816
329.94774
329.87164
329.86351
329.78703
329.78108
329.70425
329.70035
329.62318
329.62123
329.54366
331.55254
331.5924
331.57871
331.57005
331.57503
331.55722
331.5573
331.52718
331.51808
331.47761
331.46003
331.41129
331.38788
331.33277
331.30603
331.2461
331.21781
331.15438
331.12574
331.0598
331.03166
330.96393
330.9369
330.86788
330.84236
330.7724
330.74864
330.67796
330.65615
330.58488
330.56512
330.49335
330.4757
330.40348
330.38798
330.31534
330.30198
330.22891
330.21767
330.1442
330.13502
330.06116
330.05398
329.97975
329.97446
329.89991
329.89643
329.82156
329.81981
329.74456
331.57421
331.60625
331.59772
331.58707
331.59455
331.57781
331.58242
331.55638
331.55391
331.51904
331.50916
331.46651
331.45098
331.40192
331.38273
331.32855
331.30724
331.24913
331.22681
331.16573
331.14326
331.07994
331.05795
330.99294
330.97188
330.90558
330.88576
330.81843
330.80008
330.73192
330.71518
330.64632
330.63129
330.56182
330.54857
330.47856
330.46709
330.39659
330.38691
330.31596
330.30804
330.23668
330.23045
330.15873
330.15412
330.08208
330.07904
330.00669
330.00516
329.93246
331.59437
331.61963
331.61552
331.60324
331.61243
331.59603
331.60383
331.58056
331.58317
331.55264
331.54906
331.51151
331.50275
331.45903
331.44655
331.39766
331.38271
331.32966
331.31323
331.25689
331.23979
331.18088
331.16372
331.1028
331.08606
331.02355
331.00757
330.94378
330.92882
330.86397
330.85021
330.78448
330.77204
330.70556
330.69452
330.6274
330.61781
330.55012
330.54199
330.4738
330.46712
330.3985
330.39322
330.32423
330.32031
330.251
330.2484
330.17879
330.17748
330.10753
331.61318
331.63249
331.63215
331.61858
331.62898
331.61252
331.62249
331.60102
331.60742
331.58016
331.58161
331.54823
331.54513
331.50604
331.49937
331.45527
331.44599
331.39767
331.38661
331.33483
331.32269
331.26812
331.2555
331.19867
331.18603
331.12738
331.11508
331.05494
331.04325
330.98187
330.97099
330.90857
330.89864
330.83534
330.82647
330.76243
330.75467
330.68999
330.68338
330.61816
330.6127
330.54701
330.54268
330.4766
330.47337
330.40697
330.40482
330.33811
330.33703
330.27
331.63074
331.64482
331.64765
331.63309
331.64436
331.62763
331.63908
331.6187
331.62785
331.60298
331.60835
331.57831
331.57983
331.54468
331.54295
331.50308
331.49876
331.45478
331.44851
331.40104
331.39342
331.34303
331.3346
331.2818
331.27299
331.21821
331.20937
331.15293
331.14435
331.08652
331.07839
331.01939
331.01187
330.9519
330.9451
330.8843
330.87831
330.8168
330.81166
330.74956
330.74528
330.68269
330.67928
330.61627
330.61371
330.55036
330.54866
330.48501
330.48415
330.42019
331.64717
331.65663
331.66206
331.64674
331.65867
331.6416
331.65401
331.63427
331.64536
331.62221
331.63052
331.60311
331.60832
331.57646
331.57881
331.54266
331.54257
331.50252
331.50044
331.45697
331.45338
331.40698
331.40234
331.35345
331.34815
331.29717
331.29155
331.2388
331.23311
331.17887
331.17333
331.11782
331.11258
331.05601
331.05119
330.99372
330.98942
330.93118
330.92745
330.86859
330.86545
330.80606
330.80354
330.74372
330.74182
330.68164
330.68037
330.61988
330.61924
330.55846
331.66255
331.6679
331.67543
331.65953
331.67194
331.65454
331.66758
331.64819
331.66058
331.63864
331.64911
331.62376
331.63181
331.60267
331.60832
331.57537
331.57881
331.54228
331.54379
331.50399
331.50393
331.46126
331.45999
331.41485
331.41271
331.36543
331.36273
331.31362
331.31059
331.25992
331.25677
331.20477
331.20164
331.14851
331.14555
331.09146
331.08874
331.03385
331.03145
330.97589
330.97384
330.91773
330.91606
330.85949
330.85823
330.80128
330.80043
330.74319
330.74276
330.68524
331.67694
331.67866
331.6878
331.67145
331.68419
331.66651
331.67992
331.66073
331.67396
331.6529
331.66488
331.64112
331.6513
331.6244
331.63263
331.60244
331.60874
331.57531
331.57982
331.54337
331.54632
331.50713
331.50879
331.46718
331.46783
331.42411
331.42401
331.37845
331.37782
331.33066
331.32968
331.28115
331.27996
331.23027
331.229
331.17831
331.17706
331.12554
331.12437
331.07215
331.07112
331.01832
331.01746
330.96418
330.96351
330.90986
330.9094
330.85544
330.85521
330.801
331.69041
331.68886
331.69919
331.68249
331.69543
331.67754
331.69115
331.6721
331.68583
331.6654
331.67839
331.65588
331.66759
331.64253
331.65272
331.62486
331.63343
331.60273
331.60968
331.57625
331.5817
331.54571
331.54986
331.51157
331.51464
331.47429
331.47647
331.43431
331.4358
331.39206
331.39302
331.34789
331.34845
331.30214
331.30242
331.2551
331.25519
331.20701
331.20698
331.15809
331.15799
331.1085
331.10838
331.05841
331.0583
331.00794
331.00785
330.95719
330.95714
330.90624
331.70299
331.69848
331.70961
331.69263
331.70564
331.68764
331.70131
331.6824
331.69637
331.67645
331.69006
331.66854
331.6813
331.65776
331.66937
331.64351
331.6538
331.6255
331.63437
331.60363
331.61112
331.57805
331.58428
331.54905
331.55416
331.51698
331.52113
331.48221
331.48554
331.44507
331.44773
331.4059
331.40801
331.365
331.36665
331.32263
331.32392
331.27903
331.28003
331.23442
331.23518
331.18897
331.18953
331.14283
331.14322
331.09613
331.09639
331.049
331.04912
331.00151
331.71466
331.70746
331.71903
331.70185
331.71483
331.6968
331.71043
331.69169
331.70572
331.68625
331.70018
331.6795
331.69291
331.67064
331.68323
331.65908
331.67062
331.64441
331.65475
331.62641
331.63551
331.60509
331.61297
331.58058
331.58736
331.55315
331.55893
331.52307
331.52796
331.49061
331.49473
331.45606
331.4595
331.41968
331.42253
331.38171
331.38405
331.34239
331.34428
331.3019
331.3034
331.26041
331.26157
331.21809
331.21894
331.17507
331.17563
331.13147
331.13174
331.08738
331.72537
331.71569
331.72743
331.71013
331.72298
331.70502
331.71853
331.70003
331.71399
331.69495
331.70897
331.68904
331.70279
331.68162
331.69481
331.67214
331.68454
331.66016
331.67155
331.64536
331.65565
331.62763
331.63681
331.60701
331.61512
331.58366
331.59076
331.55776
331.56393
331.52953
331.53486
331.49921
331.50377
331.467
331.47087
331.43314
331.43638
331.39782
331.4005
331.36122
331.36339
331.32352
331.32521
331.28487
331.28611
331.24538
331.2462
331.20519
331.2056
331.1644
331.73495
331.72306
331.73474
331.71741
331.73009
331.71228
331.72562
331.70743
331.72122
331.70263
331.7166
331.69734
331.71121
331.69101
331.70452
331.68314
331.69606
331.6733
331.6854
331.66111
331.67226
331.64639
331.65653
331.62909
331.63821
331.60927
331.61741
331.58707
331.59426
331.56263
331.56893
331.53612
331.5416
331.50773
331.51244
331.47765
331.48165
331.44605
331.44939
331.41311
331.41583
331.37898
331.38112
331.3438
331.34538
331.30769
331.30874
331.27078
331.27131
331.23317
331.74313
331.7294
331.74092
331.72368
331.73615
331.71861
331.73173
331.71392
331.72749
331.70939
331.72318
331.70458
331.71838
331.69907
331.71266
331.69244
331.70561
331.68428
331.6968
331.67421
331.68591
331.66197
331.67277
331.64747
331.65733
331.6307
331.6396
331.61171
331.61968
331.59061
331.59768
331.56752
331.57373
331.54258
331.54797
331.51596
331.52057
331.48779
331.49167
331.45824
331.46142
331.42745
331.42996
331.39553
331.3974
331.36262
331.36386
331.32883
331.32945
331.29426
331.7496
331.7346
331.74593
331.72894
331.74118
331.72401
331.73689
331.71954
331.73283
331.71526
331.72879
331.71085
331.72446
331.70598
331.71949
331.70032
331.71352
331.69348
331.70617
331.6851
331.69709
331.6749
331.68609
331.66274
331.67306
331.64854
331.65797
331.63233
331.64085
331.61415
331.62177
331.59408
331.60083
331.57223
331.57813
331.54872
331.5538
331.52369
331.52798
331.49726
331.50079
331.46955
331.47235
331.44069
331.44277
331.41077
331.41216
331.37992
331.38062
331.34823
331.75412
331.73856
331.74978
331.73318
331.74521
331.72852
331.74113
331.72432
331.7373
331.72031
331.73352
331.71626
331.72957
331.7119
331.72518
331.70699
331.72006
331.70119
331.71384
331.69415
331.70622
331.68559
331.69696
331.67535
331.68593
331.66332
331.67306
331.64948
331.65834
331.63382
331.64181
331.61639
331.62351
331.59728
331.60353
331.57656
331.58198
331.55435
331.55895
331.53076
331.53456
331.50589
331.50891
331.47984
331.4821
331.45272
331.45422
331.42462
331.42537
331.39564
331.75669
331.74132
331.75251
331.73647
331.74831
331.73218
331.74452
331.7283
331.74095
331.72459
331.73744
331.72087
331.73382
331.71694
331.7299
331.71262
331.72542
331.70762
331.72009
331.70164
331.71361
331.69441
331.70575
331.68573
331.69636
331.67549
331.68535
331.66363
331.67266
331.65013
331.65831
331.63499
331.64232
331.61827
331.62475
331.60003
331.60566
331.58035
331.58515
331.55931
331.56329
331.53702
331.54019
331.51356
331.51593
331.48901
331.49059
331.46347
331.46426
331.43701
331.75758
331.74299
331.75424
331.73889
331.75055
331.73506
331.74712
331.73155
331.74384
331.72816
331.74062
331.72475
331.7373
331.72119
331.73375
331.71735
331.72978
331.71298
331.72513
331.70782
331.71954
331.70162
331.7128
331.6942
331.70473
331.68542
331.69523
331.67521
331.68425
331.66352
331.67176
331.65035
331.65775
331.6357
331.64227
331.61962
331.62535
331.60217
331.60708
331.58343
331.58751
331.56346
331.56672
331.54235
331.54479
331.52015
331.52178
331.49697
331.49778
331.47286
331.75729
331.7438
331.75512
331.74054
331.75202
331.73724
331.749
331.73412
331.74605
331.73106
331.74311
331.72796
331.74007
331.72473
331.73683
331.72127
331.73326
331.71739
331.72913
331.71286
331.72423
331.70746
331.71834
331.70103
331.71132
331.69343
331.70306
331.68457
331.69348
331.67439
331.68254
331.66286
331.67022
331.64998
331.65654
331.63578
331.64152
331.6203
331.62522
331.60358
331.60769
331.58569
331.58898
331.56669
331.56916
331.54664
331.54828
331.5256
331.52643
331.50365
331.75633
331.74398
331.75532
331.74155
331.75284
331.73879
331.75024
331.73608
331.74763
331.73336
331.74498
331.73056
331.7422
331.72763
331.73923
331.72447
331.73596
331.72096
331.73222
331.7169
331.72782
331.71211
331.72259
331.70644
331.71638
331.69976
331.7091
331.69198
331.70065
331.68303
331.69099
331.67288
331.68009
331.6615
331.66794
331.64891
331.65457
331.63513
331.63999
331.62019
331.62425
331.60414
331.6074
331.58703
331.58948
331.5689
331.57054
331.54982
331.55064
331.52984
331.75507
331.74376
331.75502
331.74205
331.75311
331.73982
331.75094
331.73751
331.74867
331.73512
331.74629
331.73261
331.74375
331.72993
331.741
331.72701
331.73796
331.72377
331.73449
331.72005
331.73046
331.71571
331.7257
331.7106
331.72011
331.70463
331.71358
331.69769
331.70603
331.68974
331.69741
331.6807
331.68768
331.67058
331.67682
331.65934
331.66484
331.64702
331.65176
331.63363
331.63759
331.61919
331.62238
331.60376
331.60615
331.58735
331.58896
331.57003
331.57084
331.55185
331.75374
331.7433
331.75435
331.74215
331.75294
331.74041
331.75118
331.73848
331.74923
331.7364
331.74711
331.73415
331.74478
331.73168
331.7422
331.72895
331.73931
331.72589
331.73602
331.7224
331.73222
331.71835
331.7278
331.71364
331.72264
331.70818
331.71667
331.70189
331.70982
331.69471
331.70202
331.68658
331.69324
331.67747
331.68345
331.66738
331.67265
331.65629
331.66085
331.64422
331.64804
331.6312
331.63427
331.61723
331.61955
331.60236
331.60391
331.58662
331.58739
331.57004
331.75243
331.74272
331.75343
331.74196
331.75244
331.74063
331.75103
331.73905
331.74937
331.73726
331.74749
331.73523
331.74533
331.73292
331.74286
331.73031
331.74006
331.72735
331.73686
331.72398
331.73319
331.7201
331.72896
331.71565
331.72409
331.71055
331.71852
331.70472
331.71218
331.69813
331.70502
331.6907
331.69699
331.68242
331.68808
331.67326
331.67826
331.66321
331.66754
331.65227
331.65591
331.64046
331.64338
331.62778
331.62998
331.61425
331.61573
331.59991
331.60065
331.58478
331.75114
331.74208
331.75236
331.74156
331.75167
331.74057
331.75056
331.73928
331.74916
331.73774
331.74747
331.73588
331.74543
331.73367
331.74302
331.73111
331.74023
331.72818
331.73704
331.72483
331.73339
331.72102
331.72924
331.7167
331.72454
331.71181
331.71922
331.7063
331.71324
331.70013
331.70655
331.69324
331.69912
331.68561
331.6909
331.6772
331.68189
331.66801
331.67207
331.65802
331.66144
331.64724
331.65
331.63567
331.63775
331.62333
331.62472
331.61023
331.61093
331.59638
331.74985
331.74141
331.75118
331.74101
331.75071
331.74028
331.74985
331.73924
331.74865
331.73788
331.74709
331.73613
331.7451
331.73396
331.74268
331.73137
331.73984
331.72837
331.73657
331.72496
331.73286
331.72112
331.72869
331.71682
331.72403
331.71203
331.71884
331.70671
331.7131
331.70082
331.70674
331.69432
331.69975
331.68718
331.69209
331.67938
331.68373
331.67088
331.67466
331.66169
331.66487
331.65178
331.65435
331.64117
331.64311
331.62985
331.63115
331.61784
331.61849
331.60514
331.74856
331.74073
331.74993
331.74035
331.74961
331.73982
331.74894
331.73896
331.74788
331.73772
331.74637
331.736
331.74436
331.73377
331.74185
331.73107
331.73886
331.72794
331.73543
331.72438
331.73158
331.72042
331.7273
331.71604
331.7226
331.71124
331.71744
331.706
331.71181
331.70028
331.70568
331.69405
331.699
331.68727
331.69176
331.67993
331.68392
331.672
331.67546
331.66345
331.66638
331.65429
331.65665
331.64449
331.64628
331.63406
331.63526
331.623
331.6236
331.61131
331.74724
331.74005
331.74864
331.73961
331.7484
331.73922
331.74786
331.73847
331.74687
331.73726
331.74533
331.73548
331.7432
331.73311
331.7405
331.73021
331.73729
331.72684
331.73362
331.72305
331.72955
331.71889
331.72509
331.71436
331.72025
331.70947
331.71504
331.70421
331.70944
331.69856
331.70343
331.69249
331.69696
331.68598
331.69003
331.67898
331.68259
331.67149
331.67463
331.66348
331.66613
331.65493
331.65708
331.64582
331.64745
331.63616
331.63725
331.62592
331.62647
331.61512
331.7459
331.73935
331.7473
331.73881
331.74712
331.7385
331.74664
331.73779
331.74563
331.73651
331.74396
331.73455
331.7416
331.73193
331.73861
331.72873
331.73508
331.72504
331.7311
331.72095
331.72673
331.71651
331.72202
331.71176
331.71699
331.70671
331.71165
331.70136
331.70601
331.6957
331.70003
331.68971
331.6937
331.68337
331.68698
331.67663
331.67986
331.66948
331.6723
331.6619
331.66428
331.65386
331.65579
331.64534
331.6468
331.63632
331.63731
331.62681
331.62731
331.61679
331.74451
331.73865
331.74592
331.73797
331.74577
331.73768
331.7453
331.73692
331.74415
331.73545
331.74223
331.73319
331.73952
331.7302
331.73613
331.7266
331.7322
331.72251
331.72782
331.71804
331.72309
331.71326
331.71806
331.70822
331.71279
331.70295
331.70727
331.69746
331.70152
331.69173
331.69553
331.68576
331.68926
331.6795
331.68269
331.67295
331.67579
331.66607
331.66855
331.65882
331.66093
331.6512
331.65291
331.64317
331.64447
331.63472
331.6356
331.62584
331.62628
331.6165
331.74308
331.73793
331.7445
331.73708
331.74437
331.73677
331.74381
331.73583
331.74241
331.73404
331.74008
331.73133
331.73689
331.72785
331.733
331.72374
331.72857
331.71917
331.72372
331.71425
331.71858
331.70908
331.7132
331.70371
331.70763
331.69818
331.70189
331.6925
331.696
331.68666
331.68993
331.68065
331.68367
331.67444
331.6772
331.66801
331.67047
331.66132
331.66348
331.65435
331.65619
331.64708
331.64857
331.63947
331.6406
331.6315
331.63226
331.62315
331.62354
331.61442
331.74159
331.7372
331.74305
331.73615
331.74291
331.73574
331.74217
331.73449
331.74035
331.7322
331.73745
331.7289
331.73364
331.72479
331.72913
331.72008
331.72412
331.71495
331.71875
331.70954
331.71314
331.70394
331.70737
331.69821
331.70148
331.69238
331.69549
331.68648
331.68942
331.6805
331.68326
331.67441
331.67697
331.66821
331.67055
331.66185
331.66396
331.65531
331.65716
331.64857
331.65014
331.64158
331.64286
331.63432
331.6353
331.62677
331.62743
331.6189
331.61923
331.6107
331.74003
331.73646
331.74155
331.73518
331.74138
331.73456
331.74031
331.73283
331.73788
331.72986
331.73424
331.7258
331.72967
331.72094
331.72444
331.71553
331.71877
331.70978
331.71283
331.70383
331.70672
331.69777
331.70053
331.69166
331.6943
331.68553
331.68806
331.67939
331.6818
331.67324
331.67552
331.66707
331.66919
331.66084
331.66279
331.65453
331.65629
331.64811
331.64966
331.64154
331.64287
331.6348
331.63588
331.62784
331.62867
331.62065
331.62121
331.6132
331.61348
331.60547
331.73839
331.7357
331.74
331.73417
331.73973
331.73319
331.73816
331.73075
331.73491
331.72688
331.73034
331.72191
331.72487
331.71618
331.71882
331.71001
331.71244
331.70359
331.70588
331.69707
331.69926
331.69053
331.69265
331.68403
331.68608
331.67759
331.67957
331.67122
331.67312
331.6649
331.66671
331.65863
331.66033
331.65237
331.65394
331.64609
331.64752
331.63976
331.64103
331.63334
331.63443
331.62681
331.6277
331.62012
331.6208
331.61325
331.61371
331.60617
331.6064
331.59886
331.73665
331.73496
331.7384
331.73309
331.73793
331.73153
331.73561
331.72812
331.73128
331.72314
331.7256
331.7171
331.7191
331.71041
331.71217
331.7034
331.70503
331.69628
331.69784
331.68919
331.69071
331.68218
331.68368
331.67529
331.67678
331.66855
331.67001
331.66196
331.66338
331.65548
331.65686
331.64912
331.65043
331.64282
331.64405
331.63657
331.63769
331.63032
331.63132
331.62403
331.6249
331.61768
331.6184
331.61123
331.61178
331.60465
331.60502
331.59791
331.59809
331.59097
331.73481
331.73424
331.73673
331.73192
331.73589
331.72948
331.73251
331.72478
331.72684
331.71847
331.71987
331.71122
331.71225
331.70349
331.70437
331.69562
331.69645
331.6878
331.68864
331.68013
331.68101
331.67266
331.67358
331.66542
331.66637
331.65841
331.65938
331.6516
331.65259
331.64499
331.64597
331.63854
331.63949
331.63222
331.63313
331.62599
331.62683
331.61982
331.62058
331.61367
331.61432
331.60749
331.60804
331.60126
331.60168