/*--------------------------------*- C++ -*----------------------------------*\
| =========                 |                                                 |
| \\      /  F ield         | OpenFOAM: The Open Source CFD Toolbox           |
|  \\    /   O peration     | Version:  2312                                  |
|   \\  /    A nd           | Website:  www.openfoam.com                      |
|    \\/     M anipulation  |                                                 |
\*---------------------------------------------------------------------------*/
FoamFile
{
    version     2.0;
    format      ascii;
    arch        "LSB;label=32;scalar=64";
    class       volVectorField;
    location    "7";
    object      U_0;
}
// * * * * * * * * * * * * * * * * * * * * * * * * * * * * * * * * * * * * * //

dimensions      [0 1 -1 0 0 0 0];

internalField   nonuniform List<vector> 
4000
(
(0.0035632105 0.00066814413 0)
(0.0064112546 -4.9738893e-06 0)
(0.0031623642 2.630988e-07 0)
(0.0038574236 -6.7684611e-07 0)
(0.0036069326 8.9724146e-08 0)
(0.0035843612 -1.9212985e-07 0)
(0.0035898798 9.3858542e-08 0)
(0.003536169 -1.6009128e-07 0)
(0.00356365 1.1521844e-07 0)
(0.0035311635 -1.2188563e-07 0)
(0.0035556728 1.0866139e-07 0)
(0.0035325289 -1.03616e-07 0)
(0.0035529098 9.6999497e-08 0)
(0.0035339497 -9.1528189e-08 0)
(0.0035514806 8.6246277e-08 0)
(0.0035350095 -8.1459525e-08 0)
(0.003550432 7.6836863e-08 0)
(0.00353591 -7.258422e-08 0)
(0.0035495402 6.8516225e-08 0)
(0.0035367242 -6.4727878e-08 0)
(0.0035487501 6.1151998e-08 0)
(0.0035374605 -5.7803504e-08 0)
(0.003548045 5.4667458e-08 0)
(0.0035381217 -5.1725155e-08 0)
(0.0035474155 4.8980727e-08 0)
(0.0035387135 -4.6404847e-08 0)
(0.0035468528 4.4007598e-08 0)
(0.0035392438 -4.1758855e-08 0)
(0.0035463485 3.9669504e-08 0)
(0.0035397204 -3.7712447e-08 0)
(0.0035458944 3.5897446e-08 0)
(0.0035401508 -3.4201545e-08 0)
(0.0035454835 3.2632842e-08 0)
(0.0035405418 -3.1172436e-08 0)
(0.0035451092 2.9826816e-08 0)
(0.0035408992 -2.8580599e-08 0)
(0.0035447661 2.7438939e-08 0)
(0.0035412282 -2.638936e-08 0)
(0.003544449 2.5435976e-08 0)
(0.0035415336 -2.4568748e-08 0)
(0.0035441535 2.3790884e-08 0)
(0.0035418196 -2.3094761e-08 0)
(0.0035438755 2.2482575e-08 0)
(0.0035420905 -2.1947913e-08 0)
(0.0035436123 2.1499912e-08 0)
(0.0035423507 -2.1109484e-08 0)
(0.0035433549 2.0838778e-08 0)
(0.0035425704 -2.0640844e-08 0)
(0.0035429833 2.0150314e-08 0)
(0.003542464 -2.2239909e-08 0)
(0.0082935301 0.0017328742 0)
(0.01672005 1.3647177e-05 0)
(0.009950521 3.2450082e-05 0)
(0.011034164 -5.4224282e-06 0)
(0.010479 4.0020358e-06 0)
(0.010382739 -2.9984299e-07 0)
(0.010422579 1.1154753e-06 0)
(0.010261652 -1.226205e-07 0)
(0.010345356 5.1391847e-07 0)
(0.010249083 -3.194665e-07 0)
(0.010322336 3.8459491e-07 0)
(0.010253476 -3.4501262e-07 0)
(0.010314528 3.4172292e-07 0)
(0.010257761 -3.2196876e-07 0)
(0.01031038 3.0787638e-07 0)
(0.01026096 -2.9017317e-07 0)
(0.010307247 2.7520816e-07 0)
(0.010263686 -2.5936714e-07 0)
(0.010304563 2.4535179e-07 0)
(0.010266144 -2.3151938e-07 0)
(0.010302187 2.1892297e-07 0)
(0.010268361 -2.0685649e-07 0)
(0.010300072 1.9571647e-07 0)
(0.010270349 -1.8517611e-07 0)
(0.010298185 1.7539034e-07 0)
(0.010272128 -1.6618142e-07 0)
(0.010296497 1.5761579e-07 0)
(0.010273724 -1.4957919e-07 0)
(0.010294981 1.4210382e-07 0)
(0.010275161 -1.3510782e-07 0)
(0.010293615 1.286084e-07 0)
(0.01027646 -1.2254372e-07 0)
(0.010292376 1.1692332e-07 0)
(0.010277641 -1.1169935e-07 0)
(0.010291246 1.06877e-07 0)
(0.010278723 -1.0241859e-07 0)
(0.010290208 9.8326873e-08 0)
(0.01027972 -9.457178e-08 0)
(0.010289247 9.1154837e-08 0)
(0.010280647 -8.8051493e-08 0)
(0.01028835 8.5263576e-08 0)
(0.010281517 -8.2770975e-08 0)
(0.010287504 8.0569419e-08 0)
(0.010282343 -7.8672037e-08 0)
(0.0102867 7.7002613e-08 0)
(0.01028314 -7.5636738e-08 0)
(0.010285923 7.4922644e-08 0)
(0.010283861 -7.2291643e-08 0)
(0.010284912 7.7710105e-08 0)
(0.010283744 -7.0226262e-08 0)
(0.010666195 0.0021106011 0)
(0.025826101 -3.3608412e-05 0)
(0.016527584 7.6913885e-05 0)
(0.018027896 -8.9631402e-06 0)
(0.017154398 9.5547087e-06 0)
(0.016993902 -3.5243358e-07 0)
(0.01707758 2.4905147e-06 0)
(0.016808044 7.5912552e-08 0)
(0.016954482 9.961999e-07 0)
(0.01679167 -5.0710987e-07 0)
(0.016917173 6.9777974e-07 0)
(0.016800054 -6.1526299e-07 0)
(0.016904428 6.2092452e-07 0)
(0.016807507 -5.8572758e-07 0)
(0.01689747 5.6255016e-07 0)
(0.016813018 -5.2992738e-07 0)
(0.016892127 5.0345511e-07 0)
(0.016817706 -4.7406868e-07 0)
(0.016887533 4.4875593e-07 0)
(0.016821923 -4.2327475e-07 0)
(0.016883473 4.0035283e-07 0)
(0.016825716 -3.782316e-07 0)
(0.016879861 3.5790117e-07 0)
(0.016829113 -3.3861945e-07 0)
(0.016876639 3.2073714e-07 0)
(0.016832154 -3.0390288e-07 0)
(0.016873757 2.8823908e-07 0)
(0.016834882 -2.735482e-07 0)
(0.016871168 2.5987193e-07 0)
(0.016837338 -2.4708e-07 0)
(0.016868833 2.3518536e-07 0)
(0.016839561 -2.2409256e-07 0)
(0.016866713 2.1380401e-07 0)
(0.016841585 -2.0424562e-07 0)
(0.016864778 1.9541586e-07 0)
(0.016843438 -1.8725543e-07 0)
(0.016863 1.7976139e-07 0)
(0.016845148 -1.7288555e-07 0)
(0.016861353 1.6662485e-07 0)
(0.016846738 -1.6093901e-07 0)
(0.016859815 1.558276e-07 0)
(0.016848231 -1.5125528e-07 0)
(0.016858363 1.4721145e-07 0)
(0.016849648 -1.4373363e-07 0)
(0.01685698 1.4061792e-07 0)
(0.016851019 -1.3816538e-07 0)
(0.016855647 1.3679955e-07 0)
(0.01685229 -1.3129912e-07 0)
(0.016853994 1.4480236e-07 0)
(0.016852281 -1.2764514e-07 0)
(0.018182563 0.0039884862 0)
(0.034313388 -3.482355e-05 0)
(0.02280783 0.00012861631 0)
(0.024836871 -1.4559349e-05 0)
(0.023635331 1.7618968e-05 0)
(0.023418338 -3.4220578e-07 0)
(0.023554375 4.2759671e-06 0)
(0.02317546 5.4821071e-07 0)
(0.023391206 1.5018356e-06 0)
(0.023158993 -6.1174232e-07 0)
(0.023340292 9.9022139e-07 0)
(0.023172216 -8.6082323e-07 0)
(0.023322705 8.8547783e-07 0)
(0.023183122 -8.3735187e-07 0)
(0.023312847 8.077454e-07 0)
(0.023191113 -7.6065568e-07 0)
(0.023305167 7.2393737e-07 0)
(0.0231979 -6.8110661e-07 0)
(0.023298545 6.452045e-07 0)
(0.023203989 -6.0831848e-07 0)
(0.023292694 5.7554478e-07 0)
(0.023209457 -5.4367339e-07 0)
(0.023287493 5.1451416e-07 0)
(0.02321435 -4.8679011e-07 0)
(0.023282855 4.611049e-07 0)
(0.02321873 -4.3691461e-07 0)
(0.023278704 4.1439743e-07 0)
(0.02322266 -3.9328696e-07 0)
(0.023274975 3.7361622e-07 0)
(0.0232262 -3.5523034e-07 0)
(0.023271609 3.3811549e-07 0)
(0.023229405 -3.2216744e-07 0)
(0.023268553 3.0735931e-07 0)
(0.023232322 -2.9361379e-07 0)
(0.023265763 2.8090239e-07 0)
(0.023234995 -2.6916451e-07 0)
(0.023263199 2.5837375e-07 0)
(0.023237461 -2.4848123e-07 0)
(0.023260824 2.3946404e-07 0)
(0.023239754 -2.3128065e-07 0)
(0.023258604 2.2391633e-07 0)
(0.023241908 -2.1733072e-07 0)
(0.02325651 2.1149763e-07 0)
(0.023243952 -2.0649761e-07 0)
(0.023254515 2.0193969e-07 0)
(0.023245929 -1.9849558e-07 0)
(0.023252594 1.9648059e-07 0)
(0.023247792 -1.875965e-07 0)
(0.023250298 2.123598e-07 0)
(0.023248018 -1.8301256e-07 0)
(0.019826764 0.0038283389 0)
(0.04187185 -0.00012860719 0)
(0.028894073 0.00019492194 0)
(0.031477511 -2.1278704e-05 0)
(0.029920483 2.8195295e-05 0)
(0.029657602 -3.3907629e-07 0)
(0.029851421 6.4020977e-06 0)
(0.029364045 1.2613358e-06 0)
(0.029655348 1.9915985e-06 0)
(0.029351276 -6.2734292e-07 0)
(0.029591574 1.2450454e-06 0)
(0.029370096 -1.0715426e-06 0)
(0.02956924 1.1232305e-06 0)
(0.029384707 -1.066412e-06 0)
(0.029556404 1.0330472e-06 0)
(0.029395329 -9.7271684e-07 0)
(0.029546278 9.274312e-07 0)
(0.029404335 -8.7182615e-07 0)
(0.029537522 8.2650518e-07 0)
(0.029412401 -7.7893117e-07 0)
(0.029529788 7.3720609e-07 0)
(0.029419633 -6.962904e-07 0)
(0.029522915 6.5904155e-07 0)
(0.029426102 -6.2351971e-07 0)
(0.029516785 5.9065641e-07 0)
(0.029431891 -5.5967928e-07 0)
(0.029511299 5.3084384e-07 0)
(0.029437087 -5.0380946e-07 0)
(0.029506368 4.7860518e-07 0)
(0.029441769 -4.5505431e-07 0)
(0.029501916 4.3311688e-07 0)
(0.029446008 -4.1268325e-07 0)
(0.029497874 3.9369784e-07 0)
(0.029449868 -3.7608212e-07 0)
(0.029494184 3.5978208e-07 0)
(0.029453403 -3.4473631e-07 0)
(0.029490793 3.3089704e-07 0)
(0.029456664 -3.1821428e-07 0)
(0.029487652 3.0664755e-07 0)
(0.029459696 -2.9615309e-07 0)
(0.029484718 2.8670461e-07 0)
(0.029462542 -2.7825388e-07 0)
(0.02948195 2.7076348e-07 0)
(0.029465243 -2.6435995e-07 0)
(0.029479314 2.5842778e-07 0)
(0.029467854 -2.5413703e-07 0)
(0.029476778 2.5145367e-07 0)
(0.02947034 -2.3898589e-07 0)
(0.029473834 2.7725911e-07 0)
(0.029470909 -2.3385144e-07 0)
(0.025741734 0.0051704128 0)
(0.049180167 -0.00013125727 0)
(0.034741515 0.0002631228 0)
(0.037923887 -3.0521068e-05 0)
(0.036008125 4.1331048e-05 0)
(0.03571297 -4.8439846e-07 0)
(0.035967217 8.8123648e-06 0)
(0.035374622 2.1562315e-06 0)
(0.035746556 2.4441359e-06 0)
(0.035369 -5.6193534e-07 0)
(0.035670741 1.4602497e-06 0)
(0.035394012 -1.2504129e-06 0)
(0.035643775 1.3348482e-06 0)
(0.035412516 -1.2744877e-06 0)
(0.035627914 1.2394556e-06 0)
(0.035425881 -1.1672627e-06 0)
(0.03561526 1.1149031e-06 0)
(0.0354372 -1.0472117e-06 0)
(0.035604292 9.9355431e-07 0)
(0.035447322 -9.3598874e-07 0)
(0.035594603 8.861524e-07 0)
(0.035456387 -8.3686139e-07 0)
(0.035585993 7.9221411e-07 0)
(0.035464493 -7.4949854e-07 0)
(0.035578313 7.1004213e-07 0)
(0.035471749 -6.7280977e-07 0)
(0.035571437 6.3815762e-07 0)
(0.035478262 -6.056628e-07 0)
(0.035565256 5.7535737e-07 0)
(0.035484133 -5.4704397e-07 0)
(0.035559674 5.2065719e-07 0)
(0.035489448 -4.9608621e-07 0)
(0.035554606 4.7324495e-07 0)
(0.035494287 -4.5205873e-07 0)
(0.03554998 4.3244521e-07 0)
(0.035498719 -4.1434722e-07 0)
(0.035545728 3.9769257e-07 0)
(0.035502806 -3.8243471e-07 0)
(0.035541793 3.6851271e-07 0)
(0.035506605 -3.5588442e-07 0)
(0.035538118 3.4450986e-07 0)
(0.035510169 -3.3433446e-07 0)
(0.035534652 3.2531027e-07 0)
(0.035513551 -3.1761279e-07 0)
(0.035531351 3.1037122e-07 0)
(0.035516816 -3.0536704e-07 0)
(0.035528181 3.0196628e-07 0)
(0.035519947 -2.858252e-07 0)
(0.035524586 3.3923903e-07 0)
(0.035520954 -2.7998734e-07 0)
(0.028965198 0.005531969 0)
(0.055403717 -0.00023302546 0)
(0.040487715 0.00033455925 0)
(0.0441228 -3.6341118e-05 0)
(0.041902386 5.765752e-05 0)
(0.041587772 -7.4052682e-07 0)
(0.041901652 1.1515648e-05 0)
(0.041208528 3.1864089e-06 0)
(0.041664497 2.8428112e-06 0)
(0.041212685 -4.2338921e-07 0)
(0.041577521 1.6351962e-06 0)
(0.04124429 -1.4005257e-06 0)
(0.04154605 1.5215638e-06 0)
(0.041266806 -1.4634214e-06 0)
(0.041527143 1.4283272e-06 0)
(0.041282989 -1.3457079e-06 0)
(0.041511912 1.2875856e-06 0)
(0.041296685 -1.2084735e-06 0)
(0.041498676 1.1474622e-06 0)
(0.041308918 -1.0805604e-06 0)
(0.041486982 1.0233787e-06 0)
(0.041319867 -9.6633458e-07 0)
(0.041476588 9.1491836e-07 0)
(0.041329657 -8.6556838e-07 0)
(0.041467315 8.200517e-07 0)
(0.04133842 -7.7705572e-07 0)
(0.04145901 7.3704473e-07 0)
(0.041346288 -6.9951801e-07 0)
(0.041451543 6.6450763e-07 0)
(0.041353381 -6.3180392e-07 0)
(0.041444797 6.0131114e-07 0)
(0.041359805 -5.7292504e-07 0)
(0.041438674 5.4652472e-07 0)
(0.041365651 -5.2204543e-07 0)
(0.041433084 4.9937329e-07 0)
(0.041371005 -4.7845986e-07 0)
(0.041427949 4.5920624e-07 0)
(0.041375941 -4.4157268e-07 0)
(0.041423197 4.2547606e-07 0)
(0.041380528 -4.1087834e-07 0)
(0.041418761 3.9772486e-07 0)
(0.041384829 -3.8595512e-07 0)
(0.04141458 3.755127e-07 0)
(0.041388907 -3.6662117e-07 0)
(0.041410598 3.5813418e-07 0)
(0.041392842 -3.5253921e-07 0)
(0.041406778 3.4835388e-07 0)
(0.041396633 -3.2855752e-07 0)
(0.041402534 3.9817001e-07 0)
(0.041398159 -3.2152331e-07 0)
(0.034148355 0.0062554695 0)
(0.061133801 -0.0002633213 0)
(0.046167566 0.00039428729 0)
(0.04985188 -4.5582509e-05 0)
(0.047579135 7.4598216e-05 0)
(0.047276445 -1.4977334e-06 0)
(0.047652786 1.4423231e-05 0)
(0.046866823 4.2849622e-06 0)
(0.047408719 3.1748762e-06 0)
(0.046882739 -2.1848956e-07 0)
(0.04731167 1.7682628e-06 0)
(0.046921203 -1.5231967e-06 0)
(0.04727584 1.683168e-06 0)
(0.046947798 -1.6335624e-06 0)
(0.047253895 1.5996386e-06 0)
(0.04696684 -1.5081402e-06 0)
(0.047236058 1.4454543e-06 0)
(0.046982953 -1.3556263e-06 0)
(0.047220523 1.2882078e-06 0)
(0.046997335 -1.2126388e-06 0)
(0.04720679 1.1488647e-06 0)
(0.047010201 -1.0846906e-06 0)
(0.04719458 1.027131e-06 0)
(0.047021704 -9.71703e-07 0)
(0.047183684 9.2065902e-07 0)
(0.047032004 -8.7238826e-07 0)
(0.047173923 8.2747826e-07 0)
(0.047041254 -7.8534693e-07 0)
(0.047165144 7.4603031e-07 0)
(0.047049594 -7.093088e-07 0)
(0.047157213 6.7505593e-07 0)
(0.047057146 -6.431783e-07 0)
(0.047150013 6.1351805e-07 0)
(0.04706402 -5.8602513e-07 0)
(0.047143442 5.605513e-07 0)
(0.047070313 -5.370615e-07 0)
(0.047137407 5.1542719e-07 0)
(0.047076113 -4.9561968e-07 0)
(0.047131823 4.7753086e-07 0)
(0.047081501 -4.6113049e-07 0)
(0.047126613 4.4634698e-07 0)
(0.047086552 -4.3311568e-07 0)
(0.047121704 4.2137296e-07 0)
(0.047091339 -4.1138827e-07 0)
(0.04711703 4.0172788e-07 0)
(0.047095954 -3.9566126e-07 0)
(0.047112549 3.9062626e-07 0)
(0.047100415 -3.6728244e-07 0)
(0.047107658 4.5367748e-07 0)
(0.047102526 -3.5838284e-07 0)
(0.037844886 0.0067057453 0)
(0.065608051 -0.00039412559 0)
(0.051997629 0.00048010295 0)
(0.055025076 -5.3916924e-05 0)
(0.053038296 9.0208437e-05 0)
(0.052775584 -2.6926878e-06 0)
(0.053220988 1.7521565e-05 0)
(0.052350584 5.4081939e-06 0)
(0.052978887 3.429262e-06 0)
(0.052379551 4.6239209e-08 0)
(0.052873013 1.8582049e-06 0)
(0.052424994 -1.6190776e-06 0)
(0.052832963 1.8193052e-06 0)
(0.052455681 -1.7848242e-06 0)
(0.052808003 1.7530971e-06 0)
(0.052477594 -1.6543062e-06 0)
(0.052787551 1.5881995e-06 0)
(0.052496144 -1.4883922e-06 0)
(0.052769699 1.4155009e-06 0)
(0.052512696 -1.3319573e-06 0)
(0.052753908 1.2623441e-06 0)
(0.052527499 -1.1916794e-06 0)
(0.052739865 1.1286065e-06 0)
(0.052540735 -1.0676703e-06 0)
(0.052727328 1.0116385e-06 0)
(0.052552588 -9.5859408e-07 0)
(0.052716094 9.0925257e-07 0)
(0.052563236 -8.6295512e-07 0)
(0.052705987 8.1973938e-07 0)
(0.052572837 -7.7938255e-07 0)
(0.052696857 7.4172404e-07 0)
(0.052581532 -7.0668717e-07 0)
(0.052688569 6.7407439e-07 0)
(0.052589445 -6.4385477e-07 0)
(0.052681005 6.1584383e-07 0)
(0.052596688 -5.9002313e-07 0)
(0.052674059 5.662333e-07 0)
(0.052603362 -5.4445901e-07 0)
(0.052667636 5.2456643e-07 0)
(0.052609559 -5.0653489e-07 0)
(0.052661644 4.9027543e-07 0)
(0.052615367 -4.757196e-07 0)
(0.052655999 4.6279937e-07 0)
(0.052620869 -4.5182486e-07 0)
(0.052650628 4.4107277e-07 0)
(0.052626169 -4.3464968e-07 0)
(0.05264548 4.2870952e-07 0)
(0.052631304 -4.0199673e-07 0)
(0.052639947 5.0534919e-07 0)
(0.052634057 -3.9050198e-07 0)
(0.043107482 0.007267046 0)
(0.069771076 -0.00044723065 0)
(0.057617211 0.00054565187 0)
(0.05976237 -6.2032253e-05 0)
(0.058316579 0.00010287664 0)
(0.058075327 -4.4931984e-06 0)
(0.058605808 2.0667075e-05 0)
(0.057660345 6.4870722e-06 0)
(0.058374714 3.5956677e-06 0)
(0.057703407 3.6112436e-07 0)
(0.058261398 1.9040028e-06 0)
(0.057755863 -1.6891221e-06 0)
(0.05821726 1.9298681e-06 0)
(0.057790617 -1.9173385e-06 0)
(0.058189318 1.8886033e-06 0)
(0.057815393 -1.7841372e-06 0)
(0.05816626 1.7156757e-06 0)
(0.057836385 -1.6066502e-06 0)
(0.058146087 1.5291958e-06 0)
(0.057855113 -1.438384e-06 0)
(0.058128234 1.363679e-06 0)
(0.05787186 -1.2871688e-06 0)
(0.05811235 1.2192147e-06 0)
(0.057886836 -1.1533434e-06 0)
(0.058098165 1.0928689e-06 0)
(0.057900251 -1.035555e-06 0)
(0.05808545 9.822564e-07 0)
(0.057912304 -9.3223505e-07 0)
(0.05807401 8.85534e-07 0)
(0.057923172 -8.4192861e-07 0)
(0.058063673 8.0122492e-07 0)
(0.057933015 -7.6336562e-07 0)
(0.058054291 7.2811283e-07 0)
(0.057941971 -6.9545778e-07 0)
(0.05804573 6.6517865e-07 0)
(0.057950168 -6.3727651e-07 0)
(0.058037871 6.1155991e-07 0)
(0.057957719 -5.880296e-07 0)
(0.058030604 5.6652472e-07 0)
(0.05796473 -5.470366e-07 0)
(0.058023827 5.2945782e-07 0)
(0.057971298 -5.1371733e-07 0)
(0.058017445 4.9974485e-07 0)
(0.057977516 -4.8788523e-07 0)
(0.058011373 4.7613043e-07 0)
(0.057983501 -4.6945976e-07 0)
(0.058005557 4.6257107e-07 0)
(0.057989311 -4.3271969e-07 0)
(0.057999389 5.5284847e-07 0)
(0.057992753 -4.1790694e-07 0)
(0.047079609 0.0075476786 0)
(0.073111281 -0.00057202921 0)
(0.062944051 0.00060055814 0)
(0.064242825 -6.6987103e-05 0)
(0.063440106 0.00011196184 0)
(0.063162623 -7.1388944e-06 0)
(0.063806064 2.357434e-05 0)
(0.062797239 7.4532922e-06 0)
(0.06359595 3.6701563e-06 0)
(0.062854575 7.1728243e-07 0)
(0.063476723 1.9058439e-06 0)
(0.062913992 -1.7340354e-06 0)
(0.063428595 2.0151368e-06 0)
(0.062952751 -2.0313417e-06 0)
(0.063397715 2.0062818e-06 0)
(0.062980362 -1.8977057e-06 0)
(0.063372067 1.8279076e-06 0)
(0.063003784 -1.7104195e-06 0)
(0.063349585 1.6292894e-06 0)
(0.063024683 -1.5319176e-06 0)
(0.063329674 1.4528562e-06 0)
(0.063043371 -1.3711464e-06 0)
(0.063311953 1.298937e-06 0)
(0.063060085 -1.2287048e-06 0)
(0.06329612 1.1643296e-06 0)
(0.06307506 -1.1032525e-06 0)
(0.063281926 1.0464701e-06 0)
(0.063088517 -9.9316915e-07 0)
(0.063269153 9.433969e-07 0)
(0.063100652 -8.969316e-07 0)
(0.063257612 8.5354428e-07 0)
(0.063111641 -8.1320081e-07 0)
(0.063247137 7.75622e-07 0)
(0.06312164 -7.4082393e-07 0)
(0.063237581 7.08547e-07 0)
(0.06313079 -6.788137e-07 0)
(0.063228809 6.5140053e-07 0)
(0.063139216 -6.2632555e-07 0)
(0.0632207 6.0340111e-07 0)
(0.063147038 -5.8263158e-07 0)
(0.06321314 5.638912e-07 0)
(0.063154363 -5.4710668e-07 0)
(0.063206023 5.3220837e-07 0)
(0.063161297 -5.1956826e-07 0)
(0.063199253 5.0690565e-07 0)
(0.063167965 -5.0008811e-07 0)
(0.063192769 4.9222197e-07 0)
(0.063174446 -4.5949991e-07 0)
(0.063185975 5.9591443e-07 0)
(0.063178614 -4.4069901e-07 0)
(0.052880449 0.0081229908 0)
(0.076355417 -0.00063332737 0)
(0.06796279 0.00064945881 0)
(0.068556495 -7.0679024e-05 0)
(0.068422446 0.00011768687 0)
(0.06804263 -1.0196745e-05 0)
(0.068824537 2.604174e-05 0)
(0.067762549 8.2648183e-06 0)
(0.06864254 3.6554543e-06 0)
(0.067833274 1.1051843e-06 0)
(0.06851892 1.8640554e-06 0)
(0.067899534 -1.7544284e-06 0)
(0.068466847 2.0755322e-06 0)
(0.067942207 -2.1271678e-06 0)
(0.068433077 2.1063438e-06 0)
(0.067972611 -1.9951816e-06 0)
(0.06840487 1.9250004e-06 0)
(0.067998442 -1.7998033e-06 0)
(0.068380098 1.7158549e-06 0)
(0.068021496 -1.6126301e-06 0)
(0.068358145 1.5299329e-06 0)
(0.068042112 -1.4436654e-06 0)
(0.068338598 1.36782e-06 0)
(0.068060553 -1.2937966e-06 0)
(0.068321129 1.2260606e-06 0)
(0.068077079 -1.1617226e-06 0)
(0.068305464 1.1019291e-06 0)
(0.06809193 -1.0457902e-06 0)
(0.068291367 9.9336086e-07 0)
(0.068105324 -9.4442256e-07 0)
(0.068278629 8.9871305e-07 0)
(0.068117453 -8.5622262e-07 0)
(0.068267069 8.1663144e-07 0)
(0.068128487 -7.7998204e-07 0)
(0.068256523 7.4597724e-07 0)
(0.068138582 -7.1466258e-07 0)
(0.068246845 6.8578244e-07 0)
(0.068147879 -6.593738e-07 0)
(0.0682379 6.3522203e-07 0)
(0.068156505 -6.1334604e-07 0)
(0.068229563 5.9360136e-07 0)
(0.068164583 -5.7591354e-07 0)
(0.068221716 5.6021565e-07 0)
(0.068172226 -5.4689927e-07 0)
(0.068214253 5.3342822e-07 0)
(0.068179571 -5.2655573e-07 0)
(0.068207106 5.1769927e-07 0)
(0.068186716 -4.8240121e-07 0)
(0.068199698 6.3434427e-07 0)
(0.068191637 -4.5902963e-07 0)
(0.057072379 0.0082524125 0)
(0.078956498 -0.00077634171 0)
(0.072845834 0.00069878049 0)
(0.072742138 -7.2414032e-05 0)
(0.073250612 0.00012003917 0)
(0.072732211 -1.3318338e-05 0)
(0.073664793 2.7895887e-05 0)
(0.072557275 8.8825747e-06 0)
(0.073514433 3.5609593e-06 0)
(0.072639621 1.5153364e-06 0)
(0.073387936 1.7797749e-06 0)
(0.072712619 -1.7503393e-06 0)
(0.07333191 2.1117399e-06 0)
(0.072759092 -2.2051322e-06 0)
(0.073295303 2.1890852e-06 0)
(0.072792237 -2.0767806e-06 0)
(0.073264576 2.0071229e-06 0)
(0.072820446 -1.8749583e-06 0)
(0.073237542 1.7890225e-06 0)
(0.072845629 -1.6806463e-06 0)
(0.073213572 1.5950186e-06 0)
(0.072868152 -1.50483e-06 0)
(0.073192219 1.4259583e-06 0)
(0.072888301 -1.3487093e-06 0)
(0.073173132 1.2781454e-06 0)
(0.072906361 -1.2110459e-06 0)
(0.073156013 1.1487093e-06 0)
(0.072922593 -1.0901717e-06 0)
(0.073140605 1.0354957e-06 0)
(0.072937231 -9.8446896e-07 0)
(0.073126684 9.3679602e-07 0)
(0.072950486 -8.9249348e-07 0)
(0.073114051 8.5120149e-07 0)
(0.072962544 -8.1299019e-07 0)
(0.073102528 7.7752572e-07 0)
(0.072973574 -7.4487739e-07 0)
(0.073091954 7.1475846e-07 0)
(0.072983729 -6.8722529e-07 0)
(0.073082184 6.6203724e-07 0)
(0.072993152 -6.3922819e-07 0)
(0.073073079 6.1863557e-07 0)
(0.073001972 -6.001842e-07 0)
(0.073064511 5.838123e-07 0)
(0.073010316 -5.6992285e-07 0)
(0.073056364 5.5574636e-07 0)
(0.073018329 -5.4890143e-07 0)
(0.073048561 5.3905897e-07 0)
(0.073026126 -5.0149746e-07 0)
(0.07304055 6.6798468e-07 0)
(0.073031823 -4.7308607e-07 0)
(0.062846566 0.0087205626 0)
(0.08171982 -0.00081925921 0)
(0.077557093 0.00073210698 0)
(0.076770021 -7.6146212e-05 0)
(0.077909547 0.00011892609 0)
(0.07725172 -1.6423382e-05 0)
(0.078330427 2.9090286e-05 0)
(0.077182688 9.3057868e-06 0)
(0.078211703 3.4053807e-06 0)
(0.077273741 1.9398372e-06 0)
(0.078083759 1.6541028e-06 0)
(0.07735338 -1.7213154e-06 0)
(0.078023698 2.1246467e-06 0)
(0.077403502 -2.2655338e-06 0)
(0.077984304 2.2548728e-06 0)
(0.077439327 -2.1427673e-06 0)
(0.077951102 2.0744977e-06 0)
(0.077469875 -1.936095e-06 0)
(0.077921846 1.8489737e-06 0)
(0.077497154 -1.7361416e-06 0)
(0.077895889 1.6482719e-06 0)
(0.077521554 -1.5547906e-06 0)
(0.077872759 1.4734925e-06 0)
(0.077543386 -1.3935754e-06 0)
(0.077852078 1.3207108e-06 0)
(0.077562956 -1.2513418e-06 0)
(0.077833527 1.1869258e-06 0)
(0.077580546 -1.1264224e-06 0)
(0.077816829 1.0699067e-06 0)
(0.07759641 -1.0171709e-06 0)
(0.077801743 9.6788976e-07 0)
(0.077610773 -9.2210574e-07 0)
(0.077788054 8.7942109e-07 0)
(0.077623838 -8.3993375e-07 0)
(0.077775569 8.0327461e-07 0)
(0.077635788 -7.6953724e-07 0)
(0.077764115 7.3840484e-07 0)
(0.077646789 -7.0995371e-07 0)
(0.077753532 6.8391796e-07 0)
(0.077656993 -6.6034715e-07 0)
(0.077743672 6.3906089e-07 0)
(0.077666544 -6.199843e-07 0)
(0.077734395 6.0306234e-07 0)
(0.077675578 -5.8870174e-07 0)
(0.077725575 5.7392523e-07 0)
(0.077684246 -5.6718081e-07 0)
(0.077717127 5.5637399e-07 0)
(0.077692684 -5.1687229e-07 0)
(0.077708528 6.9672804e-07 0)
(0.07769917 -4.8308228e-07 0)
(0.067022922 0.0087091795 0)
(0.083906355 -0.00096793749 0)
(0.082194584 0.00075962484 0)
(0.080661022 -7.7796046e-05 0)
(0.082396759 0.00011502594 0)
(0.081614884 -1.9509778e-05 0)
(0.082823237 2.9656672e-05 0)
(0.081639667 9.5338771e-06 0)
(0.08273426 3.207628e-06 0)
(0.081735675 2.3687907e-06 0)
(0.082606326 1.4868253e-06 0)
(0.081821911 -1.6668122e-06 0)
(0.082542127 2.1152004e-06 0)
(0.081875521 -2.3086893e-06 0)
(0.082499996 2.3041113e-06 0)
(0.081913957 -2.1934568e-06 0)
(0.082464374 2.1273926e-06 0)
(0.081946797 -1.9834749e-06 0)
(0.082432941 1.8959379e-06 0)
(0.081976133 -1.7793392e-06 0)
(0.082405037 1.6898967e-06 0)
(0.082002374 -1.5937432e-06 0)
(0.082380164 1.5106057e-06 0)
(0.082025856 -1.4285703e-06 0)
(0.08235792 1.3539222e-06 0)
(0.082046907 -1.2827689e-06 0)
(0.082337965 1.216729e-06 0)
(0.082065829 -1.1546866e-06 0)
(0.082320003 1.096731e-06 0)
(0.082082893 -1.0426598e-06 0)
(0.082303776 9.9211992e-07 0)
(0.082098343 -9.4517961e-07 0)
(0.082289052 9.0140551e-07 0)
(0.082112395 -8.6092301e-07 0)
(0.082275625 8.2332998e-07 0)
(0.082125245 -7.887438e-07 0)
(0.082263307 7.568196e-07 0)
(0.082137074 -7.2765324e-07 0)
(0.082251928 7.0095532e-07 0)
(0.082148045 -6.7679089e-07 0)
(0.082241329 6.5496281e-07 0)
(0.082158312 -6.3539696e-07 0)
(0.082231358 6.1804682e-07 0)
(0.08216802 -6.0331522e-07 0)
(0.082221878 5.8804564e-07 0)
(0.082177331 -5.8146501e-07 0)
(0.082212798 5.6973258e-07 0)
(0.082186393 -5.2861878e-07 0)
(0.082203627 7.2050891e-07 0)
(0.082193676 -4.8925098e-07 0)
(0.07323424 0.0092018264 0)
(0.08640551 -0.00099814947 0)
(0.086693963 0.00077612691 0)
(0.084412988 -7.990168e-05 0)
(0.086710308 0.0001078522 0)
(0.085825453 -2.272322e-05 0)
(0.08714353 2.9665303e-05 0)
(0.085928934 9.5804831e-06 0)
(0.087081891 2.9932924e-06 0)
(0.086025668 2.7956814e-06 0)
(0.086955546 1.2789497e-06 0)
(0.086118305 -1.5857178e-06 0)
(0.086887131 2.0846573e-06 0)
(0.086175223 -2.3348217e-06 0)
(0.086842309 2.3372861e-06 0)
(0.086216195 -2.2291919e-06 0)
(0.086804327 2.1661242e-06 0)
(0.086251274 -2.0174026e-06 0)
(0.086770769 1.9301886e-06 0)
(0.08628262 -1.8105049e-06 0)
(0.086740965 1.7201389e-06 0)
(0.08631066 -1.6219227e-06 0)
(0.08671439 1.5375198e-06 0)
(0.086335754 -1.4539047e-06 0)
(0.08669062 1.3779805e-06 0)
(0.086358251 -1.3055178e-06 0)
(0.086669293 1.2383015e-06 0)
(0.086378473 -1.1751375e-06 0)
(0.086650097 1.1161349e-06 0)
(0.086396709 -1.0610939e-06 0)
(0.086632755 1.009638e-06 0)
(0.086413219 -9.6185967e-07 0)
(0.086617021 9.1729321e-07 0)
(0.086428234 -8.7609045e-07 0)
(0.086602675 8.3781879e-07 0)
(0.086441964 -8.0261887e-07 0)
(0.086589515 7.7011975e-07 0)
(0.0864546 -7.4043653e-07 0)
(0.08657736 7.1325791e-07 0)
(0.086466319 -6.8866438e-07 0)
(0.086566038 6.6644293e-07 0)
(0.086477284 -6.4652108e-07 0)
(0.08655539 6.2886183e-07 0)
(0.086487651 -6.1385744e-07 0)
(0.086545268 5.9820224e-07 0)
(0.086497587 -5.918392e-07 0)
(0.08653557 5.7923619e-07 0)
(0.086507258 -5.3683866e-07 0)
(0.086525843 7.3930034e-07 0)
(0.086515338 -4.9183664e-07 0)
(0.077349179 0.008952574 0)
(0.088350506 -0.0011510399 0)
(0.091050705 0.00078460502 0)
(0.088093891 -8.0013959e-05 0)
(0.090862307 9.8188417e-05 0)
(0.089884069 -2.5903804e-05 0)
(0.091291925 2.9239963e-05 0)
(0.090050509 9.4697827e-06 0)
(0.091253925 2.7830278e-06 0)
(0.090144393 3.2073178e-06 0)
(0.091131238 1.0327944e-06 0)
(0.090242641 -1.4779637e-06 0)
(0.091058646 2.0341285e-06 0)
(0.090302672 -2.3442444e-06 0)
(0.09101118 2.3548779e-06 0)
(0.0903461 -2.2503691e-06 0)
(0.090970904 2.19104e-06 0)
(0.09038336 -2.0382266e-06 0)
(0.090935281 1.9520367e-06 0)
(0.090416663 -1.8299443e-06 0)
(0.090903627 1.7392807e-06 0)
(0.090446454 -1.6396014e-06 0)
(0.090875396 1.5544904e-06 0)
(0.090473116 -1.4698234e-06 0)
(0.090850141 1.3931175e-06 0)
(0.09049702 -1.31981e-06 0)
(0.090827481 1.2518536e-06 0)
(0.090518507 -1.1879761e-06 0)
(0.090807085 1.1283095e-06 0)
(0.090537883 -1.0726556e-06 0)
(0.090788659 1.020618e-06 0)
(0.090555424 -9.7231192e-07 0)
(0.090771943 9.2724294e-07 0)
(0.090571375 -8.8558769e-07 0)
(0.090756702 8.4688642e-07 0)
(0.090585959 -8.1130159e-07 0)
(0.090742725 7.7843907e-07 0)
(0.090599381 -7.4843203e-07 0)
(0.090729814 7.2094966e-07 0)
(0.090611826 -6.9608712e-07 0)
(0.090717791 6.7361707e-07 0)
(0.090623471 -6.5346909e-07 0)
(0.090706485 6.3561672e-07 0)
(0.090634478 -6.2043538e-07 0)
(0.090695737 6.0450174e-07 0)
(0.090645022 -5.9840084e-07 0)
(0.090685438 5.8499761e-07 0)
(0.090655281 -5.4164131e-07 0)
(0.090675173 7.5311023e-07 0)
(0.090664155 -4.9108961e-07 0)
(0.08411252 0.0094508935 0)
(0.090743197 -0.0011480308 0)
(0.095157335 0.00078482437 0)
(0.091746617 -7.881786e-05 0)
(0.094860589 8.6586997e-05 0)
(0.093787916 -2.9017513e-05 0)
(0.095268677 2.8462646e-05 0)
(0.094003769 9.2242998e-06 0)
(0.095249641 2.5975246e-06 0)
(0.09409282 3.5869392e-06 0)
(0.095133132 7.5567947e-07 0)
(0.094194981 -1.3445317e-06 0)
(0.095056618 1.9648089e-06 0)
(0.094257929 -2.337261e-06 0)
(0.095006554 2.3574075e-06 0)
(0.094303724 -2.2574176e-06 0)
(0.094964055 2.202524e-06 0)
(0.094343101 -2.046332e-06 0)
(0.09492643 1.9618291e-06 0)
(0.094378304 -1.837997e-06 0)
(0.094892985 1.7476377e-06 0)
(0.094409793 -1.6470823e-06 0)
(0.094863148 1.561804e-06 0)
(0.094437975 -1.4765991e-06 0)
(0.094836454 1.3995927e-06 0)
(0.094463243 -1.325892e-06 0)
(0.094812501 1.2576203e-06 0)
(0.094485955 -1.1934256e-06 0)
(0.094790942 1.1334679e-06 0)
(0.094506436 -1.0775475e-06 0)
(0.094771467 1.0252536e-06 0)
(0.094524975 -9.7672088e-07 0)
(0.0947538 9.3143099e-07 0)
(0.094541832 -8.8958316e-07 0)
(0.094737693 8.5069402e-07 0)
(0.094557245 -8.1494639e-07 0)
(0.094722923 7.8192572e-07 0)
(0.094571427 -7.517822e-07 0)
(0.094709282 7.2416777e-07 0)
(0.094584576 -6.9919159e-07 0)
(0.094696579 6.7661337e-07 0)
(0.094596878 -6.5636546e-07 0)
(0.094684635 6.384323e-07 0)
(0.094608505 -6.2316738e-07 0)
(0.094673282 6.0706139e-07 0)
(0.094619637 -6.0125835e-07 0)
(0.094662399 5.8713924e-07 0)
(0.094630466 -5.4314298e-07 0)
(0.094651616 7.6197811e-07 0)
(0.094640125 -4.8726129e-07 0)
(0.088436904 0.009139622 0)
(0.092566316 -0.0013039105 0)
(0.099002814 0.00077039127 0)
(0.095387864 -7.7292853e-05 0)
(0.098704595 7.3900986e-05 0)
(0.0975344 -3.1935826e-05 0)
(0.099074175 2.7422195e-05 0)
(0.097787887 8.8792846e-06 0)
(0.099068865 2.4482137e-06 0)
(0.097871626 3.9187265e-06 0)
(0.098960922 4.605002e-07 0)
(0.097975346 -1.1880245e-06 0)
(0.098880998 1.877763e-06 0)
(0.098041042 -2.3142248e-06 0)
(0.098828382 2.3454018e-06 0)
(0.098089115 -2.2508104e-06 0)
(0.098783737 2.2009857e-06 0)
(0.09813054 -2.0421406e-06 0)
(0.09874418 1.9599428e-06 0)
(0.098167578 -1.8350352e-06 0)
(0.098709003 1.7455548e-06 0)
(0.098200709 -1.6446976e-06 0)
(0.098677616 1.5597731e-06 0)
(0.09823036 -1.4745308e-06 0)
(0.098649532 1.3976891e-06 0)
(0.098256944 -1.3240335e-06 0)
(0.098624332 1.2558579e-06 0)
(0.098280839 -1.19173e-06 0)
(0.098601651 1.1318421e-06 0)
(0.098302385 -1.0759906e-06 0)
(0.098581162 1.023755e-06 0)
(0.098321888 -9.7528712e-07 0)
(0.098562577 9.3004884e-07 0)
(0.09833962 -8.8825964e-07 0)
(0.098545636 8.4941658e-07 0)
(0.098355831 -8.1372069e-07 0)
(0.0985301 7.8074047e-07 0)
(0.098370747 -7.5064139e-07 0)
(0.098515753 7.23061e-07 0)
(0.098384576 -6.9812121e-07 0)
(0.098502394 6.7557069e-07 0)
(0.098397513 -6.553449e-07 0)
(0.098489835 6.3743944e-07 0)
(0.098409738 -6.2218152e-07 0)
(0.098477898 6.0600751e-07 0)
(0.098421438 -6.0052975e-07 0)
(0.098466452 5.857916e-07 0)
(0.098432814 -5.4146592e-07 0)
(0.09845517 7.6597206e-07 0)
(0.098443245 -4.8060018e-07 0)
(0.094693669 0.0094288385 0)
(0.095021439 -0.0012733328 0)
(0.10261558 0.0007520098 0)
(0.098978771 -7.5918977e-05 0)
(0.10238805 6.0905368e-05 0)
(0.10112146 -3.4574835e-05 0)
(0.10270822 2.6179416e-05 0)
(0.10140195 8.4616009e-06 0)
(0.10271199 2.3326169e-06 0)
(0.10148089 4.1902191e-06 0)
(0.10261432 1.6292174e-07 0)
(0.1015837 -1.0124323e-06 0)