/*--------------------------------*- C++ -*----------------------------------*\
| =========                 |                                                 |
| \\      /  F ield         | OpenFOAM: The Open Source CFD Toolbox           |
|  \\    /   O peration     | Version:  2312                                  |
|   \\  /    A nd           | Website:  www.openfoam.com                      |
|    \\/     M anipulation  |                                                 |
\*---------------------------------------------------------------------------*/
FoamFile
{
    version     2.0;
    format      ascii;
    arch        "LSB;label=32;scalar=64";
    class       volSymmTensorField;
    location    "3";
    object      sigma;
}
// * * * * * * * * * * * * * * * * * * * * * * * * * * * * * * * * * * * * * //

dimensions      [0 2 -2 0 0 0 0];

internalField   nonuniform List<symmTensor> 
4000
(
(-4.0632197 -1.8315945 0 -0.77078737 0 0)
(-13.119339 -0.71791132 0 -0.012491903 0 0)
(-4.2762066 -0.37857564 0 -0.0024194778 0 0)
(-4.7256887 -0.39536966 0 0.00026843679 0 0)
(-4.2576058 -0.3774124 0 -0.00020724279 0 0)
(-4.1643813 -0.37245853 0 2.3110553e-05 0 0)
(-4.1826113 -0.37372153 0 -6.1970713e-05 0 0)
(-4.0690448 -0.36816232 0 1.2603682e-05 0 0)
(-4.1230535 -0.37090197 0 -3.1371518e-05 0 0)
(-4.0564504 -0.36758016 0 2.0476316e-05 0 0)
(-4.1047528 -0.37003599 0 -2.3541782e-05 0 0)
(-4.0583453 -0.3676788 0 2.0784058e-05 0 0)
(-4.0988706 -0.36975065 0 -2.0239482e-05 0 0)
(-4.0611552 -0.3678217 0 1.8788736e-05 0 0)
(-4.0958693 -0.36959937 0 -1.7722061e-05 0 0)
(-4.0634524 -0.36794003 0 1.6528014e-05 0 0)
(-4.0936382 -0.36948513 0 -1.5478877e-05 0 0)
(-4.0654252 -0.3680417 0 1.4429098e-05 0 0)
(-4.0917254 -0.36938721 0 -1.3480249e-05 0 0)
(-4.0671767 -0.36813158 0 1.2557712e-05 0 0)
(-4.090048 -0.36930154 0 -1.1709136e-05 0 0)
(-4.0687351 -0.36821128 0 1.0895642e-05 0 0)
(-4.0885698 -0.36922616 0 -1.0140276e-05 0 0)
(-4.070117 -0.36828185 0 9.4213823e-06 0 0)
(-4.0872651 -0.36915964 0 -8.7515704e-06 0 0)
(-4.0713399 -0.36834428 0 8.117115e-06 0 0)
(-4.0861133 -0.3691009 0 -7.5257963e-06 0 0)
(-4.0724205 -0.36839945 0 6.9677927e-06 0 0)
(-4.0850967 -0.36904904 0 -6.4484922e-06 0 0)
(-4.0733746 -0.36844816 0 5.9602931e-06 0 0)
(-4.0842 -0.36900327 0 -5.5070894e-06 0 0)
(-4.0742165 -0.36849114 0 5.0827946e-06 0 0)
(-4.0834089 -0.3689629 0 -4.6902964e-06 0 0)
(-4.0749595 -0.36852905 0 4.3245785e-06 0 0)
(-4.0827103 -0.36892729 0 -3.9878621e-06 0 0)
(-4.0756165 -0.36856252 0 3.6760001e-06 0 0)
(-4.0820918 -0.36889583 0 -3.3906724e-06 0 0)
(-4.0761993 -0.36859212 0 3.1285021e-06 0 0)
(-4.0815419 -0.36886796 0 -2.8907926e-06 0 0)
(-4.0767191 -0.3686184 0 2.6747689e-06 0 0)
(-4.0810497 -0.36884314 0 -2.4814163e-06 0 0)
(-4.0771865 -0.36864188 0 2.3085767e-06 0 0)
(-4.080605 -0.36882089 0 -2.1571254e-06 0 0)
(-4.0776108 -0.36866301 0 2.0250715e-06 0 0)
(-4.0801981 -0.36880073 0 -1.9132763e-06 0 0)
(-4.0780021 -0.36868228 0 1.8214391e-06 0 0)
(-4.0798232 -0.36878239 0 -1.7497636e-06 0 0)
(-4.0783677 -0.3687001 0 1.6769978e-06 0 0)
(-4.0794194 -0.36876338 0 -1.7392456e-06 0 0)
(-4.07847 -0.36870523 0 1.5895602e-06 0 0)
(-3.1614617 -1.5555456 0 -0.69621449 0 0)
(-10.723886 -0.69700971 0 -0.026259547 0 0)
(-5.046921 -0.43010497 0 -0.0071686122 0 0)
(-4.376857 -0.37880171 0 0.00026474645 0 0)
(-3.9570686 -0.36528276 0 -0.00052224837 0 0)
(-3.8426393 -0.35784881 0 -2.0077854e-06 0 0)
(-3.8715796 -0.35988652 0 -0.00011844288 0 0)
(-3.775116 -0.35465538 0 -1.9109152e-05 0 0)
(-3.8179475 -0.35700474 0 -4.2877373e-05 0 0)
(-3.7622561 -0.35396979 0 1.3814058e-05 0 0)
(-3.8012679 -0.3561407 0 -2.6262383e-05 0 0)
(-3.7628755 -0.35400027 0 2.0895691e-05 0 0)
(-3.7962053 -0.35587689 0 -2.1791351e-05 0 0)
(-3.7650324 -0.35411929 0 2.0010212e-05 0 0)
(-3.7937265 -0.35574135 0 -1.9108644e-05 0 0)
(-3.7669157 -0.35422575 0 1.7773742e-05 0 0)
(-3.7918711 -0.35563719 0 -1.6695656e-05 0 0)
(-3.7685573 -0.35431905 0 1.5528517e-05 0 0)
(-3.7902695 -0.35554696 0 -1.4525646e-05 0 0)
(-3.7700177 -0.35440182 0 1.3511985e-05 0 0)
(-3.7888633 -0.35546781 0 -1.2603151e-05 0 0)
(-3.7713173 -0.35447532 0 1.1717423e-05 0 0)
(-3.7876256 -0.35539815 0 -1.0903334e-05 0 0)
(-3.7724688 -0.35454039 0 1.0123772e-05 0 0)
(-3.786535 -0.35533675 0 -9.3999677e-06 0 0)
(-3.7734861 -0.35459789 0 8.7132382e-06 0 0)
(-3.7855743 -0.35528261 0 -8.0736433e-06 0 0)
(-3.7743831 -0.35464861 0 7.4701336e-06 0 0)
(-3.7847286 -0.35523492 0 -6.9083634e-06 0 0)
(-3.7751729 -0.35469328 0 6.3806385e-06 0 0)
(-3.7839846 -0.35519296 0 -5.8904227e-06 0 0)
(-3.7758679 -0.35473258 0 5.4320132e-06 0 0)
(-3.7833301 -0.35515605 0 -5.0076211e-06 0 0)
(-3.7764797 -0.35476715 0 4.6126374e-06 0 0)
(-3.7827539 -0.35512359 0 -4.2486931e-06 0 0)
(-3.777019 -0.35479757 0 3.9120055e-06 0 0)
(-3.7822452 -0.355095 0 -3.6037086e-06 0 0)
(-3.7774962 -0.35482439 0 3.3208139e-06 0 0)
(-3.7817943 -0.35506975 0 -3.064134e-06 0 0)
(-3.7779206 -0.35484813 0 2.8311829e-06 0 0)
(-3.7813917 -0.35504735 0 -2.6225427e-06 0 0)
(-3.7783014 -0.35486927 0 2.4364501e-06 0 0)
(-3.781029 -0.35502732 0 -2.2735283e-06 0 0)
(-3.7786464 -0.35488825 0 2.1315153e-06 0 0)
(-3.7806976 -0.35500923 0 -2.0119483e-06 0 0)
(-3.778964 -0.35490548 0 1.9159985e-06 0 0)
(-3.7803929 -0.35499282 0 -1.837981e-06 0 0)
(-3.7792666 -0.35492179 0 1.749287e-06 0 0)
(-3.7800862 -0.35497771 0 -1.9521866e-06 0 0)
(-3.7794039 -0.35492974 0 1.5421042e-06 0 0)
(-3.1996985 -1.5630602 0 -0.68536379 0 0)
(-8.9354427 -0.64271202 0 -0.031199034 0 0)
(-5.0043288 -0.44367986 0 -0.010916391 0 0)
(-4.2547596 -0.3732394 0 1.8800901e-05 0 0)
(-3.7677152 -0.35716505 0 -0.00077936916 0 0)
(-3.6369719 -0.34813722 0 -2.2786815e-05 0 0)
(-3.6655923 -0.35039317 0 -0.0001525116 0 0)
(-3.5823241 -0.34553461 0 -4.6510452e-05 0 0)
(-3.6201631 -0.34769141 0 -4.8627143e-05 0 0)
(-3.5710259 -0.34484665 0 6.0587342e-06 0 0)
(-3.6049969 -0.34684947 0 -2.6000519e-05 0 0)
(-3.5711974 -0.34484543 0 1.8692179e-05 0 0)
(-3.6003921 -0.34659773 0 -2.0766376e-05 0 0)
(-3.5730134 -0.34495163 0 1.8871723e-05 0 0)
(-3.5982005 -0.34647152 0 -1.8190836e-05 0 0)
(-3.5746668 -0.34505114 0 1.6880292e-05 0 0)
(-3.596568 -0.34637399 0 -1.5892607e-05 0 0)
(-3.5761186 -0.34513911 0 1.4752849e-05 0 0)
(-3.5951553 -0.34628907 0 -1.3817109e-05 0 0)
(-3.5774111 -0.34521724 0 1.2836342e-05 0 0)
(-3.593914 -0.34621444 0 -1.1978791e-05 0 0)
(-3.5785612 -0.34528665 0 1.1128649e-05 0 0)
(-3.5928218 -0.34614875 0 -1.0355804e-05 0 0)
(-3.5795796 -0.3453481 0 9.6103077e-06 0 0)
(-3.5918605 -0.34609088 0 -8.921292e-06 0 0)
(-3.5804785 -0.34540235 0 8.2656671e-06 0 0)
(-3.5910149 -0.34603993 0 -7.6561027e-06 0 0)
(-3.5812698 -0.34545013 0 7.0802857e-06 0 0)
(-3.5902718 -0.34599512 0 -6.5446769e-06 0 0)
(-3.5819653 -0.34549215 0 6.0413322e-06 0 0)
(-3.5896194 -0.34595575 0 -5.5738199e-06 0 0)
(-3.5825762 -0.34552905 0 5.1366824e-06 0 0)
(-3.5890467 -0.34592119 0 -4.7319286e-06 0 0)
(-3.5831127 -0.34556144 0 4.3552814e-06 0 0)
(-3.5885435 -0.34589087 0 -4.008146e-06 0 0)
(-3.5835846 -0.34558988 0 3.6870805e-06 0 0)
(-3.5881004 -0.34586421 0 -3.3929381e-06 0 0)
(-3.5840011 -0.34561491 0 3.123133e-06 0 0)
(-3.5877083 -0.34584071 0 -2.8782209e-06 0 0)
(-3.5843707 -0.34563702 0 2.6560043e-06 0 0)
(-3.5873592 -0.3458199 0 -2.4568402e-06 0 0)
(-3.5847015 -0.34565667 0 2.2793712e-06 0 0)
(-3.5870453 -0.34580133 0 -2.1240223e-06 0 0)
(-3.5850005 -0.34567428 0 1.9884689e-06 0 0)
(-3.5867589 -0.34578457 0 -1.8749088e-06 0 0)
(-3.5852751 -0.34569023 0 1.7851366e-06 0 0)
(-3.5864959 -0.34576938 0 -1.7082276e-06 0 0)
(-3.5855377 -0.34570543 0 1.6231523e-06 0 0)
(-3.5862361 -0.34575611 0 -1.8990642e-06 0 0)
(-3.5856774 -0.34571371 0 1.4832475e-06 0 0)
(-2.9855728 -1.447003 0 -0.61128048 0 0)
(-7.8971342 -0.60858537 0 -0.034317291 0 0)
(-4.9074457 -0.4540889 0 -0.014611747 0 0)
(-4.1454373 -0.36803702 0 -0.00020120378 0 0)
(-3.6005468 -0.34987035 0 -0.0011063242 0 0)
(-3.4424764 -0.33863709 0 -5.1578758e-05 0 0)
(-3.4664236 -0.34090984 0 -0.00018757117 0 0)
(-3.3938283 -0.33640375 0 -7.7654505e-05 0 0)
(-3.4280743 -0.33837917 0 -5.2136761e-05 0 0)
(-3.3843562 -0.33572283 0 -4.2463527e-06 0 0)
(-3.4143747 -0.33756347 0 -2.3771329e-05 0 0)
(-3.3842283 -0.33569012 0 1.4587469e-05 0 0)
(-3.4101376 -0.33732226 0 -1.7985654e-05 0 0)
(-3.3857547 -0.33578321 0 1.6114523e-05 0 0)
(-3.40816 -0.33720438 0 -1.5746883e-05 0 0)
(-3.3872194 -0.33587595 0 1.4568692e-05 0 0)
(-3.4066971 -0.33711293 0 -1.3759201e-05 0 0)
(-3.3885195 -0.3359588 0 1.2735492e-05 0 0)
(-3.40543 -0.33703294 0 -1.1947833e-05 0 0)
(-3.3896776 -0.33603242 0 1.1077299e-05 0 0)
(-3.4043161 -0.33696254 0 -1.0343219e-05 0 0)
(-3.3907074 -0.3360978 0 9.5974974e-06 0 0)
(-3.4033369 -0.33690062 0 -8.9299992e-06 0 0)
(-3.3916184 -0.33615564 0 8.2798207e-06 0 0)
(-3.4024761 -0.33684613 0 -7.6824913e-06 0 0)
(-3.3924213 -0.33620664 0 7.1122425e-06 0 0)
(-3.4017203 -0.33679823 0 -6.5830438e-06 0 0)
(-3.3931269 -0.3362515 0 6.0827789e-06 0 0)
(-3.4010574 -0.33675618 0 -5.6176505e-06 0 0)
(-3.3937458 -0.33629085 0 5.1806107e-06 0 0)
(-3.4004766 -0.33671931 0 -4.7745471e-06 0 0)
(-3.3942883 -0.33632535 0 4.3951629e-06 0 0)
(-3.399968 -0.33668702 0 -4.0436528e-06 0 0)
(-3.3947636 -0.33635556 0 3.7167934e-06 0 0)
(-3.3995223 -0.33665874 0 -3.415311e-06 0 0)
(-3.3951806 -0.33638204 0 3.1366693e-06 0 0)
(-3.3991307 -0.33663393 0 -2.8811394e-06 0 0)
(-3.3955477 -0.33640529 0 2.6469591e-06 0 0)
(-3.3987854 -0.33661212 0 -2.4341566e-06 0 0)
(-3.3958725 -0.33642578 0 2.2411787e-06 0 0)
(-3.3984788 -0.33659283 0 -2.0679966e-06 0 0)
(-3.3961622 -0.33644397 0 1.9138804e-06 0 0)
(-3.398204 -0.33657565 0 -1.7788943e-06 0 0)
(-3.3964233 -0.33646024 0 1.6608183e-06 0 0)
(-3.3979542 -0.33656017 0 -1.5624442e-06 0 0)
(-3.3966622 -0.33647495 0 1.4860179e-06 0 0)
(-3.3977253 -0.33654613 0 -1.4150843e-06 0 0)
(-3.3968912 -0.33648906 0 1.3351679e-06 0 0)
(-3.3975047 -0.33653456 0 -1.6864002e-06 0 0)
(-3.3970327 -0.33649775 0 1.226181e-06 0 0)
(-2.7876452 -1.3420627 0 -0.55326891 0 0)
(-6.913772 -0.57563813 0 -0.03610724 0 0)
(-4.7088858 -0.45848361 0 -0.01785615 0 0)
(-4.0169041 -0.36249225 0 -0.0004592226 0 0)
(-3.4430365 -0.34274503 0 -0.0014540328 0 0)
(-3.2577475 -0.32925707 0 -7.7841108e-05 0 0)
(-3.2729117 -0.33135435 0 -0.00021679695 0 0)
(-3.2094573 -0.32720724 0 -0.00010304607 0 0)
(-3.2411281 -0.32905141 0 -5.4305243e-05 0 0)
(-3.2022399 -0.32657996 0 -1.3377473e-05 0 0)
(-3.2290911 -0.32828171 0 -2.1611035e-05 0 0)
(-3.2020576 -0.3265272 0 1.0855458e-05 0 0)
(-3.2252249 -0.32805189 0 -1.5353464e-05 0 0)
(-3.2033619 -0.32660954 0 1.3557555e-05 0 0)
(-3.2234264 -0.32794138 0 -1.3436158e-05 0 0)
(-3.204669 -0.32669643 0 1.2398402e-05 0 0)
(-3.2221047 -0.32785535 0 -1.1744e-05 0 0)
(-3.2058426 -0.32677479 0 1.0834326e-05 0 0)
(-3.2209605 -0.3277798 0 -1.0183554e-05 0 0)
(-3.2068885 -0.3268444 0 9.418142e-06 0 0)
(-3.2199546 -0.32771326 0 -8.8002413e-06 0 0)
(-3.2078176 -0.32690617 0 8.1534719e-06 0 0)
(-3.2190712 -0.32765478 0 -7.5856323e-06 0 0)
(-3.2086384 -0.32696075 0 7.0256947e-06 0 0)
(-3.2182959 -0.32760339 0 -6.5153256e-06 0 0)
(-3.2093605 -0.3270088 0 6.0258951e-06 0 0)
(-3.2176164 -0.32755831 0 -5.5730116e-06 0 0)
(-3.209994 -0.32705097 0 5.1442466e-06 0 0)
(-3.2170217 -0.32751881 0 -4.7460911e-06 0 0)
(-3.2105486 -0.3270879 0 4.3717772e-06 0 0)
(-3.2165019 -0.32748425 0 -4.0240963e-06 0 0)
(-3.2110334 -0.3271202 0 3.6992987e-06 0 0)
(-3.2160478 -0.32745406 0 -3.3983695e-06 0 0)
(-3.2114572 -0.32714843 0 3.1185487e-06 0 0)
(-3.2156508 -0.32742767 0 -2.8604368e-06 0 0)
(-3.2118281 -0.3271731 0 2.6218641e-06 0 0)
(-3.2153031 -0.32740458 0 -2.4029926e-06 0 0)
(-3.2121535 -0.32719472 0 2.2024251e-06 0 0)
(-3.2149974 -0.32738432 0 -2.0201127e-06 0 0)
(-3.2124405 -0.32721373 0 1.8547032e-06 0 0)
(-3.214727 -0.32736645 0 -1.7061413e-06 0 0)
(-3.2126955 -0.32723056 0 1.573994e-06 0 0)
(-3.2144856 -0.32735057 0 -1.4582166e-06 0 0)
(-3.2129245 -0.32724558 0 1.3564665e-06 0 0)
(-3.214267 -0.3273363 0 -1.2722812e-06 0 0)
(-3.2131331 -0.32725912 0 1.2077121e-06 0 0)
(-3.2140673 -0.32732334 0 -1.1416412e-06 0 0)
(-3.2133329 -0.32727217 0 1.0677489e-06 0 0)
(-3.2138789 -0.32731318 0 -1.4676069e-06 0 0)
(-3.2134709 -0.32728099 0 9.7718256e-07 0 0)
(-2.7807267 -1.3082513 0 -0.52380215 0 0)
(-5.9327513 -0.53877316 0 -0.037617714 0 0)
(-4.434967 -0.45645347 0 -0.020196244 0 0)
(-3.8475218 -0.35640504 0 -0.00096723242 0 0)
(-3.2978596 -0.33657547 0 -0.0019257562 0 0)
(-3.0873636 -0.32034982 0 -0.00012670966 0 0)
(-3.0889997 -0.32194785 0 -0.00025081505 0 0)
(-3.0301421 -0.31797739 0 -0.00012367649 0 0)
(-3.0595811 -0.31971982 0 -5.5736775e-05 0 0)
(-3.0249471 -0.31742528 0 -2.0962476e-05 0 0)
(-3.0490837 -0.31900376 0 -1.9897834e-05 0 0)
(-3.0248043 -0.31735971 0 7.8036437e-06 0 0)
(-3.0455744 -0.31878538 0 -1.319913e-05 0 0)
(-3.0259275 -0.31743274 0 1.1493155e-05 0 0)
(-3.0439306 -0.31868137 0 -1.1542866e-05 0 0)
(-3.0270952 -0.31751433 0 1.0632967e-05 0 0)
(-3.0427304 -0.3186002 0 -1.0094729e-05 0 0)
(-3.0281566 -0.31758855 0 9.2806923e-06 0 0)
(-3.0416939 -0.31852876 0 -8.7401872e-06 0 0)
(-3.0291035 -0.31765444 0 8.0605264e-06 0 0)
(-3.0407835 -0.31846582 0 -7.5376045e-06 0 0)
(-3.0299435 -0.31771283 0 6.9716727e-06 0 0)
(-3.0399849 -0.31841057 0 -6.4854139e-06 0 0)
(-3.0306844 -0.31776434 0 5.9994629e-06 0 0)
(-3.0392854 -0.31836211 0 -5.5602889e-06 0 0)
(-3.0313351 -0.3178096 0 5.1372305e-06 0 0)
(-3.0386734 -0.31831968 0 -4.7468249e-06 0 0)
(-3.0319048 -0.31784925 0 4.3768282e-06 0 0)
(-3.038139 -0.31828258 0 -4.0335081e-06 0 0)
(-3.0324023 -0.3178839 0 3.7107198e-06 0 0)
(-3.0376731 -0.31825021 0 -3.4108188e-06 0 0)
(-3.0328363 -0.31791412 0 3.130847e-06 0 0)
(-3.0372669 -0.31822198 0 -2.8713037e-06 0 0)
(-3.0332147 -0.31794047 0 2.6300912e-06 0 0)
(-3.0369129 -0.31819737 0 -2.4074533e-06 0 0)
(-3.0335449 -0.31796345 0 2.2017479e-06 0 0)
(-3.0366038 -0.31817589 0 -2.0128692e-06 0 0)
(-3.0338338 -0.31798353 0 1.8398866e-06 0 0)
(-3.0363329 -0.3181571 0 -1.6824999e-06 0 0)
(-3.0340875 -0.31800114 0 1.539683e-06 0 0)
(-3.0360942 -0.31814057 0 -1.4112584e-06 0 0)
(-3.0343122 -0.31801668 0 1.2971049e-06 0 0)
(-3.035882 -0.31812593 0 -1.1969719e-06 0 0)
(-3.0345131 -0.31803052 0 1.1085433e-06 0 0)
(-3.0356906 -0.3181128 0 -1.0359179e-06 0 0)
(-3.0346952 -0.31804295 0 9.8069833e-07 0 0)
(-3.0355164 -0.31810088 0 -9.1806331e-07 0 0)
(-3.0348693 -0.31805497 0 8.496457e-07 0 0)
(-3.0353555 -0.31809195 0 -1.2785402e-06 0 0)
(-3.035001 -0.31806379 0 7.6305733e-07 0 0)
(-2.7634751 -1.2457346 0 -0.47322421 0 0)
(-4.9450293 -0.50935834 0 -0.040094984 0 0)
(-4.1490017 -0.45204646 0 -0.021526007 0 0)
(-3.5745055 -0.34599379 0 -0.0017000792 0 0)
(-3.1026954 -0.32811727 0 -0.0023525995 0 0)
(-2.910809 -0.31103102 0 -0.00016072635 0 0)
(-2.907222 -0.31237542 0 -0.00027727294 0 0)
(-2.855463 -0.30871434 0 -0.00013727973 0 0)
(-2.8829253 -0.31036805 0 -5.6501036e-05 0 0)
(-2.8523725 -0.30825511 0 -2.7168789e-05 0 0)
(-2.8742266 -0.30972543 0 -1.847276e-05 0 0)
(-2.852466 -0.30818758 0 5.25112e-06 0 0)
(-2.8711296 -0.30952097 0 -1.137611e-05 0 0)
(-2.8534742 -0.30825359 0 9.7779203e-06 0 0)
(-2.8696376 -0.30942324 0 -9.9399092e-06 0 0)
(-2.8545241 -0.30833046 0 9.153457e-06 0 0)
(-2.8685469 -0.30934665 0 -8.7017073e-06 0 0)
(-2.8554854 -0.30840081 0 7.9724791e-06 0 0)
(-2.867607 -0.30927912 0 -7.5228879e-06 0 0)
(-2.8563434 -0.30846317 0 6.9160019e-06 0 0)
(-2.8667826 -0.30921963 0 -6.4732064e-06 0 0)
(-2.8571033 -0.30851831 0 5.975484e-06 0 0)
(-2.8660606 -0.30916749 0 -5.5582431e-06 0 0)
(-2.8577723 -0.30856687 0 5.1347825e-06 0 0)
(-2.8654292 -0.30912185 0 -4.7558417e-06 0 0)
(-2.8583586 -0.30860945 0 4.3888982e-06 0 0)
(-2.8648781 -0.30908196 0 -4.0513264e-06 0 0)
(-2.8588709 -0.30864667 0 3.7310263e-06 0 0)
(-2.8643979 -0.30904717 0 -3.4340725e-06 0 0)
(-2.8593173 -0.30867912 0 3.1548497e-06 0 0)
(-2.8639802 -0.30901689 0 -2.8953136e-06 0 0)
(-2.8597058 -0.30870736 0 2.6532073e-06 0 0)
(-2.863617 -0.30899054 0 -2.428614e-06 0 0)
(-2.8600436 -0.30873191 0 2.2200125e-06 0 0)
(-2.8633014 -0.30896764 0 -2.0273374e-06 0 0)
(-2.8603375 -0.30875327 0 1.8493958e-06 0 0)
(-2.8630266 -0.30894771 0 -1.6858307e-06 0 0)
(-2.8605937 -0.30877188 0 1.5361383e-06 0 0)
(-2.8627868 -0.30893031 0 -1.3998184e-06 0 0)
(-2.860818 -0.30878815 0 1.2760806e-06 0 0)
(-2.8625762 -0.30891507 0 -1.1646468e-06 0 0)
(-2.8610157 -0.30880246 0 1.0657015e-06 0 0)
(-2.8623898 -0.30890161 0 -9.7876956e-07 0 0)
(-2.8611918 -0.30881517 0 9.0158412e-07 0 0)
(-2.8622225 -0.30888957 0 -8.3874655e-07 0 0)
(-2.8613505 -0.30882655 0 7.9117609e-07 0 0)
(-2.8620708 -0.30887864 0 -7.3145249e-07 0 0)
(-2.8615019 -0.30883755 0 6.684097e-07 0 0)
(-2.8619336 -0.30887078 0 -1.1111707e-06 0 0)
(-2.8616258 -0.30884624 0 5.7879746e-07 0 0)
(-2.7762142 -1.1705441 0 -0.41859295 0 0)
(-4.0073137 -0.48097593 0 -0.043632892 0 0)
(-3.8307999 -0.44082631 0 -0.021432493 0 0)
(-3.3564531 -0.34663964 0 -0.0044894492 0 0)
(-2.9499731 -0.32267193 0 -0.0030831263 0 0)
(-2.7519606 -0.30245398 0 -0.00025632489 0 0)
(-2.7379755 -0.30313731 0 -0.00031984567 0 0)
(-2.6864818 -0.29943608 0 -0.00014837391 0 0)
(-2.7119861 -0.30102256 0 -5.6132231e-05 0 0)
(-2.6848409 -0.2990767 0 -3.2018956e-05 0 0)
(-2.7046254 -0.30044948 0 -1.7095465e-05 0 0)
(-2.685112 -0.29901253 0 3.0666047e-06 0 0)
(-2.7018913 -0.30025888 0 -9.7609172e-06 0 0)
(-2.6860252 -0.29907267 0 8.2875834e-06 0 0)
(-2.7005356 -0.30016688 0 -8.5235952e-06 0 0)
(-2.6869702 -0.29914511 0 7.857595e-06 0 0)
(-2.6995423 -0.30009453 0 -7.4732227e-06 0 0)
(-2.6878409 -0.29921175 0 6.822859e-06 0 0)
(-2.6986893 -0.30003072 0 -6.4514448e-06 0 0)
(-2.6886183 -0.2992707 0 5.9096315e-06 0 0)
(-2.6979427 -0.29997457 0 -5.5373503e-06 0 0)
(-2.6893057 -0.29932271 0 5.0999562e-06 0 0)
(-2.69729 -0.29992543 0 -4.743729e-06 0 0)
(-2.6899095 -0.29936842 0 4.3754672e-06 0 0)
(-2.6967203 -0.29988251 0 -4.0497868e-06 0 0)
(-2.6904378 -0.29940841 0 3.732393e-06 0 0)
(-2.6962242 -0.29984508 0 -3.4415114e-06 0 0)
(-2.6908983 -0.29944329 0 3.165099e-06 0 0)
(-2.6957929 -0.29981252 0 -2.909092e-06 0 0)
(-2.6912987 -0.29947362 0 2.6683044e-06 0 0)
(-2.6954186 -0.29978424 0 -2.4443891e-06 0 0)
(-2.6916462 -0.29949996 0 2.2356735e-06 0 0)
(-2.6950941 -0.2997597 0 -2.0419e-06 0 0)
(-2.6919476 -0.2995228 0 1.8620456e-06 0 0)
(-2.6948128 -0.29973843 0 -1.6957855e-06 0 0)
(-2.692209 -0.2995426 0 1.5423126e-06 0 0)
(-2.6945689 -0.29971997 0 -1.4010787e-06 0 0)
(-2.6924361 -0.29955981 0 1.2719331e-06 0 0)
(-2.6943567 -0.29970392 0 -1.1541818e-06 0 0)
(-2.692634 -0.29957479 0 1.0472653e-06 0 0)
(-2.6941712 -0.2996899 0 -9.508414e-07 0 0)
(-2.6928078 -0.29958794 0 8.6530727e-07 0 0)
(-2.6940078 -0.29967756 0 -7.9000551e-07 0 0)
(-2.6929618 -0.29959956 0 7.2277372e-07 0 0)
(-2.6938618 -0.29966657 0 -6.6859319e-07 0 0)
(-2.6930999 -0.29960993 0 6.2757002e-07 0 0)
(-2.6937299 -0.29965659 0 -5.7075159e-07 0 0)
(-2.6932312 -0.29961996 0 5.130525e-07 0 0)
(-2.6936133 -0.29964969 0 -9.5812206e-07 0 0)
(-2.6933463 -0.29962842 0 4.1821915e-07 0 0)
(-2.8494392 -1.1598007 0 -0.4010821 0 0)
(-3.331932 -0.46476637 0 -0.049053844 0 0)
(-3.4893989 -0.41548781 0 -0.018812553 0 0)
(-3.0502255 -0.33641566 0 -0.0060922932 0 0)
(-2.7562643 -0.31320154 0 -0.0033377188 0 0)
(-2.5800608 -0.2928904 0 -0.00029858972 0 0)
(-2.5663559 -0.29351969 0 -0.00034283821 0 0)
(-2.522314 -0.29015345 0 -0.00015274835 0 0)
(-2.5457265 -0.29165301 0 -5.5391409e-05 0 0)
(-2.5220367 -0.2898822 0 -3.5663935e-05 0 0)
(-2.5400946 -0.29117058 0 -1.575707e-05 0 0)
(-2.5226805 -0.2898322 0 1.1862428e-06 0 0)
(-2.5378074 -0.29099769 0 -8.2997833e-06 0 0)
(-2.5235739 -0.28988941 0 6.9750409e-06 0 0)
(-2.536604 -0.29091194 0 -7.2496875e-06 0 0)
(-2.5244395 -0.28995816 0 6.7057458e-06 0 0)
(-2.5357051 -0.29084377 0 -6.3720613e-06 0 0)
(-2.525231 -0.29002133 0 5.7977624e-06 0 0)
(-2.5349321 -0.29078357 0 -5.4937765e-06 0 0)
(-2.5259357 -0.29007702 0 5.0118194e-06 0 0)
(-2.5342565 -0.29073064 0 -4.70232e-06 0 0)
(-2.5265573 -0.29012602 0 4.3194077e-06 0 0)
(-2.5336669 -0.29068441 0 -4.0178973e-06 0 0)
(-2.5271022 -0.29016898 0 3.6992403e-06 0 0)
(-2.5331533 -0.29064411 0 -3.4213823e-06 0 0)
(-2.5275778 -0.29020648 0 3.1484552e-06 0 0)
(-2.5327069 -0.29060905 0 -2.8994773e-06 0 0)
(-2.5279915 -0.29023911 0 2.662418e-06 0 0)
(-2.5323197 -0.29057862 0 -2.4431458e-06 0 0)
(-2.5283503 -0.29026741 0 2.2368077e-06 0 0)
(-2.5319847 -0.29055227 0 -2.0448167e-06 0 0)
(-2.528661 -0.29029192 0 1.8659898e-06 0 0)
(-2.531695 -0.29052946 0 -1.6998156e-06 0 0)
(-2.5289296 -0.29031312 0 1.5456903e-06 0 0)
(-2.5314446 -0.29050975 0 -1.4030956e-06 0 0)
(-2.5291618 -0.29033145 0 1.2715291e-06 0 0)
(-2.5312282 -0.2904927 0 -1.1502817e-06 0 0)
(-2.5293628 -0.29034731 0 1.0395211e-06 0 0)
(-2.5310408 -0.29047792 0 -9.3842666e-07 0 0)
(-2.5295373 -0.29036108 0 8.4656866e-07 0 0)
(-2.5308777 -0.29046507 0 -7.6357236e-07 0 0)
(-2.5296897 -0.2903731 0 6.9007009e-07 0 0)
(-2.5307347 -0.2904538 0 -6.2519057e-07 0 0)
(-2.5298241 -0.2903837 0 5.6689577e-07 0 0)
(-2.5306076 -0.2904438 0 -5.2048939e-07 0 0)
(-2.529944 -0.29039311 0 4.8516383e-07 0 0)
(-2.5304933 -0.29043473 0 -4.314442e-07 0 0)
(-2.5300573 -0.2904022 0 3.7897309e-07 0 0)
(-2.5303946 -0.29042868 0 -8.1717072e-07 0 0)
(-2.5301634 -0.29041036 0 2.793637e-07 0 0)
(-2.8973832 -1.0609845 0 -0.3323511 0 0)
(-2.8825185 -0.42574452 0 -0.044417518 0 0)
(-3.1900646 -0.4105819 0 -0.022873456 0 0)
(-2.7769566 -0.33042559 0 -0.0086028776 0 0)
(-2.5945228 -0.30532784 0 -0.0035719905 0 0)
(-2.4272228 -0.28425349 0 -0.00043967469 0 0)
(-2.4078198 -0.28427389 0 -0.00038336304 0 0)
(-2.3642448 -0.28086981 0 -0.00015521084 0 0)
(-2.3854805 -0.2823003 0 -5.2573368e-05 0 0)
(-2.3644934 -0.28068366 0 -3.7630943e-05 0 0)
(-2.3808801 -0.28189518 0 -1.4085666e-05 0 0)
(-2.3653027 -0.28064984 0 -3.2633356e-07 0 0)
(-2.3789202 -0.28173882 0 -6.9359724e-06 0 0)
(-2.3661551 -0.28070462 0 5.8203768e-06 0 0)
(-2.3778444 -0.28165873 0 -6.0986138e-06 0 0)
(-2.3669458 -0.28076982 0 5.6762318e-06 0 0)
(-2.3770295 -0.28159445 0 -5.3821532e-06 0 0)
(-2.3676643 -0.28082961 0 4.8798153e-06 0 0)
(-2.376329 -0.2815377 0 -4.6351263e-06 0 0)
(-2.3683025 -0.28088214 0 4.2081391e-06 0 0)
(-2.3757181 -0.28148787 0 -3.9549653e-06 0 0)
(-2.368864 -0.28092823 0 3.6214055e-06 0 0)
(-2.3751859 -0.28144444 0 -3.3692211e-06 0 0)
(-2.3693552 -0.28096853 0 3.0953216e-06 0 0)
(-2.3747233 -0.28140666 0 -2.8605868e-06 0 0)
(-2.369783 -0.28100364 0 2.627713e-06 0 0)
(-2.3743221 -0.28137388 0 -2.4164962e-06 0 0)
(-2.3701544 -0.28103412 0 2.2148695e-06 0 0)
(-2.3739749 -0.28134549 0 -2.0286702e-06 0 0)
(-2.3704756 -0.28106048 0 1.853314e-06 0 0)
(-2.3736752 -0.28132097 0 -1.690052e-06 0 0)
(-2.370753 -0.28108325 0 1.5380899e-06 0 0)
(-2.3734169 -0.28129982 0 -1.3967233e-06 0 0)
(-2.3709921 -0.28110288 0 1.2657087e-06 0 0)
(-2.3731944 -0.28128158 0 -1.1443859e-06 0 0)
(-2.3711981 -0.2811198 0 1.0325015e-06 0 0)
(-2.3730027 -0.28126587 0 -9.2923625e-07 0 0)
(-2.3713757 -0.28113439 0 8.3500901e-07 0 0)
(-2.3728374 -0.28125231 0 -7.4888237e-07 0 0)
(-2.3715292 -0.281147 0 6.705664e-07 0 0)
(-2.3726943 -0.28124056 0 -5.9967441e-07 0 0)
(-2.3716626 -0.28115797 0 5.3698506e-07 0 0)
(-2.3725695 -0.28123031 0 -4.8148256e-07 0 0)
(-2.3717795 -0.28116759 0 4.3127184e-07 0 0)
(-2.3724593 -0.28122126 0 -3.9185357e-07 0 0)
(-2.3718832 -0.28117609 0 3.6151316e-07 0 0)
(-2.3723606 -0.28121306 0 -3.1114182e-07 0 0)
(-2.3719807 -0.28118429 0 2.6368109e-07 0 0)
(-2.3722774 -0.28120777 0 -6.8772737e-07 0 0)
(-2.3720776 -0.28119207 0 1.6123382e-07 0 0)
(-2.9661696 -1.0430807 0 -0.3131695 0 0)
(-2.5597802 -0.41462328 0 -0.046472974 0 0)
(-2.9107088 -0.39295447 0 -0.022327949 0 0)
(-2.5274205 -0.317358 0 -0.0089400429 0 0)
(-2.4228407 -0.29432425 0 -0.0032357366 0 0)
(-2.2713849 -0.27497712 0 -0.00053406647 0 0)
(-2.2505743 -0.27474628 0 -0.00039557282 0 0)
(-2.2109142 -0.27155081 0 -0.00014697757 0 0)
(-2.230082 -0.27292337 0 -4.745632e-05 0 0)
(-2.2117549 -0.27146662 0 -3.7696159e-05 0 0)
(-2.2267309 -0.27261493 0 -1.2012144e-05 0 0)
(-2.212874 -0.27146146 0 -1.4545371e-06 0 0)
(-2.2251611 -0.27247992 0 -5.6226621e-06 0 0)
(-2.2137474 -0.27151721 0 4.8183795e-06 0 0)
(-2.224233 -0.27240659 0 -5.0451143e-06 0 0)
(-2.2144881 -0.2715798 0 4.7568763e-06 0 0)
(-2.2235044 -0.27234637 0 -4.4870478e-06 0 0)
(-2.2151448 -0.27163651 0 4.0563101e-06 0 0)
(-2.222873 -0.27229304 0 -3.8623365e-06 0 0)
(-2.2157236 -0.27168604 0 3.4869738e-06 0 0)
(-2.2223219 -0.27224624 0 -3.2840761e-06 0 0)
(-2.2162306 -0.27172933 0 2.9956801e-06 0 0)
(-2.2218424 -0.27220551 0 -2.7879758e-06 0 0)
(-2.216673 -0.27176709 0 2.5546733e-06 0 0)
(-2.2214263 -0.27217016 0 -2.3589172e-06 0 0)
(-2.2170573 -0.27179991 0 2.1622669e-06 0 0)
(-2.2210661 -0.27213955 0 -1.9851769e-06 0 0)
(-2.2173902 -0.27182832 0 1.8155496e-06 0 0)
(-2.2207553 -0.27211312 0 -1.659235e-06 0 0)
(-2.2176774 -0.27185284 0 1.5118517e-06 0 0)
(-2.2204876 -0.27209034 0 -1.374531e-06 0 0)
(-2.2179247 -0.27187395 0 1.2467945e-06 0 0)
(-2.2202576 -0.27207076 0 -1.1278046e-06 0 0)
(-2.2181373 -0.2718921 0 1.0176198e-06 0 0)
(-2.2200601 -0.27205393 0 -9.1549981e-07 0 0)
(-2.2183198 -0.27190768 0 8.2137009e-07 0 0)
(-2.2198907 -0.27203949 0 -7.3432058e-07 0 0)
(-2.2184764 -0.27192106 0 6.549979e-07 0 0)
(-2.2197453 -0.27202708 0 -5.8241345e-07 0 0)
(-2.218611 -0.27193258 0 5.1631192e-07 0 0)
(-2.2196201 -0.27201638 0 -4.563245e-07 0 0)
(-2.2187274 -0.27194254 0 4.0342972e-07 0 0)
(-2.2195115 -0.27200709 0 -3.5640193e-07 0 0)
(-2.2188288 -0.27195124 0 3.1351357e-07 0 0)
(-2.2194163 -0.27199893 0 -2.80411e-07 0 0)
(-2.2189181 -0.27195889 0 2.544748e-07 0 0)
(-2.2193313 -0.27199155 0 -2.0775306e-07 0 0)
(-2.2190015 -0.27196623 0 1.6502354e-07 0 0)
(-2.2192618 -0.27198694 0 -5.6921514e-07 0 0)
(-2.2190894 -0.27197359 0 6.2582799e-08 0 0)
(-3.0195888 -0.97918459 0 -0.27111158 0 0)
(-2.3026211 -0.38887997 0 -0.043879022 0 0)
(-2.6742659 -0.37508173 0 -0.02167979 0 0)
(-2.3410249 -0.30625243 0 -0.0090544499 0 0)
(-2.2747147 -0.28426836 0 -0.0029283885 0 0)
(-2.1316076 -0.2662077 0 -0.00062326198 0 0)
(-2.1055455 -0.26549444 0 -0.00039704255 0 0)
(-2.0646313 -0.26227107 0 -0.00013288712 0 0)
(-2.08097 -0.26357208 0 -3.865385e-05 0 0)
(-2.0645571 -0.26225341 0 -3.5486967e-05 0 0)
(-2.0780177 -0.26334046 0 -9.0475194e-06 0 0)
(-2.065599 -0.26227283 0 -2.0664078e-06 0 0)
(-2.0766224 -0.26322376 0 -4.2711906e-06 0 0)
(-2.0664086 -0.26232874 0 3.9741727e-06 0 0)
(-2.0757891 -0.26315623 0 -4.0675636e-06 0 0)
(-2.0670853 -0.26238853 0 3.9346046e-06 0 0)
(-2.0751308 -0.26309973 0 -3.6744404e-06 0 0)
(-2.0676812 -0.26244217 0 3.3145115e-06 0 0)
(-2.0745608 -0.26304964 0 -3.1647057e-06 0 0)
(-2.0682044 -0.26248876 0 2.837468e-06 0 0)
(-2.0740641 -0.26300574 0 -2.6799676e-06 0 0)
(-2.0686614 -0.26252936 0 2.4328412e-06 0 0)
(-2.0736327 -0.26296761 0 -2.2655413e-06 0 0)
(-2.0690591 -0.26256468 0 2.0691349e-06 0 0)
(-2.073259 -0.26293458 0 -1.9087903e-06 0 0)
(-2.0694039 -0.2625953 0 1.744993e-06 0 0)
(-2.0729362 -0.26290605 0 -1.5988844e-06 0 0)
(-2.0697018 -0.26262174 0 1.4582686e-06 0 0)
(-2.0726582 -0.26288148 0 -1.3290602e-06 0 0)
(-2.0699583 -0.26264451 0 1.2070186e-06 0 0)
(-2.0724196 -0.26286037 0 -1.0932313e-06 0 0)
(-2.0701784 -0.26266404 0 9.8744128e-07 0 0)
(-2.0722151 -0.26284227 0 -8.8872125e-07 0 0)
(-2.070367 -0.26268078 0 7.9737967e-07 0 0)
(-2.0720402 -0.26282678 0 -7.1265505e-07 0 0)
(-2.0705282 -0.26269509 0 6.3460655e-07 0 0)
(-2.0718908 -0.26281354 0 -5.6226965e-07 0 0)
(-2.070666 -0.26270733 0 4.9645472e-07 0 0)
(-2.0717633 -0.26280222 0 -4.3613331e-07 0 0)
(-2.0707838 -0.26271781 0 3.8111829e-07 0 0)
(-2.071654 -0.2627925 0 -3.3105024e-07 0 0)
(-2.0708849 -0.26272683 0 2.8702735e-07 0 0)
(-2.07156 -0.26278412 0 -2.4770791e-07 0 0)
(-2.0709725 -0.26273465 0 2.1150071e-07 0 0)
(-2.071478 -0.2627768 0 -1.8409654e-07 0 0)
(-2.0710491 -0.2627415 0 1.6209093e-07 0 0)
(-2.0714053 -0.2627702 0 -1.1930985e-07 0 0)
(-2.07112 -0.26274803 0 8.0996489e-08 0 0)
(-2.0713475 -0.26276621 0 -4.6097684e-07 0 0)
(-2.0711994 -0.26275493 0 -1.8001678e-08 0 0)
(-3.094481 -0.9622836 0 -0.25379717 0 0)
(-2.1626393 -0.37512698 0 -0.041984251 0 0)
(-2.5015521 -0.3594911 0 -0.020273385 0 0)
(-2.1929713 -0.29603917 0 -0.0088669852 0 0)
(-2.1323693 -0.27404384 0 -0.002604822 0 0)
(-1.9899231 -0.25672345 0 -0.00059001707 0 0)
(-1.9627762 -0.25598545 0 -0.00035136098 0 0)
(-1.9234737 -0.25296981 0 -0.00010577133 0 0)
(-1.9369163 -0.2542061 0 -2.6820341e-05 0 0)
(-1.922325 -0.25302601 0 -3.0943696e-05 0 0)
(-1.9344315 -0.25406187 0 -5.19746e-06 0 0)
(-1.9233327 -0.25307885 0 -2.144026e-06 0 0)
(-1.9332199 -0.25396748 0 -2.8369682e-06 0 0)
(-1.9241039 -0.25313773 0 3.2960656e-06 0 0)
(-1.9324861 -0.25390679 0 -3.1395802e-06 0 0)
(-1.9247308 -0.25319558 0 3.2059453e-06 0 0)
(-1.931898 -0.25385426 0 -2.9295713e-06 0 0)
(-1.9252744 -0.25324645 0 2.6467562e-06 0 0)
(-1.9313866 -0.25380741 0 -2.5317989e-06 0 0)
(-1.9257478 -0.25329028 0 2.2514886e-06 0 0)
(-1.9309406 -0.25376634 0 -2.1341439e-06 0 0)
(-1.9261594 -0.25332831 0 1.9253795e-06 0 0)
(-1.9305534 -0.25373072 0 -1.7946222e-06 0 0)
(-1.9265165 -0.25336129 0 1.6319869e-06 0 0)
(-1.9302184 -0.25369992 0 -1.5038448e-06 0 0)
(-1.9268254 -0.25338982 0 1.369978e-06 0 0)
(-1.9299297 -0.25367337 0 -1.2520647e-06 0 0)
(-1.9270916 -0.2534144 0 1.137833e-06 0 0)
(-1.9296816 -0.25365057 0 -1.0333044e-06 0 0)
(-1.9273201 -0.25343549 0 9.3431581e-07 0 0)
(-1.9294692 -0.25363103 0 -8.4195339e-07 0 0)
(-1.9275157 -0.25345353 0 7.5611753e-07 0 0)
(-1.9292878 -0.25361435 0 -6.7583361e-07 0 0)
(-1.9276826 -0.25346893 0 6.0160054e-07 0 0)
(-1.9291333 -0.25360012 0 -5.3270373e-07 0 0)
(-1.9278248 -0.25348205 0 4.6927785e-07 0 0)
(-1.9290019 -0.25358801 0 -4.1031958e-07 0 0)
(-1.9279456 -0.25349322 0 3.5677953e-07 0 0)
(-1.9288903 -0.25357771 0 -3.0765369e-07 0 0)
(-1.9280484 -0.25350272 0 2.6271655e-07 0 0)
(-1.9287953 -0.25356893 0 -2.2165542e-07 0 0)
(-1.928136 -0.25351084 0 1.8575306e-07 0 0)
(-1.9287141 -0.25356141 0 -1.534561e-07 0 0)
(-1.9282113 -0.25351784 0 1.2335178e-07 0 0)
(-1.928644 -0.25355487 0 -1.0112956e-07 0 0)