/*--------------------------------*- C++ -*----------------------------------*\
| =========                 |                                                 |
| \\      /  F ield         | OpenFOAM: The Open Source CFD Toolbox           |
|  \\    /   O peration     | Version:  2312                                  |
|   \\  /    A nd           | Website:  www.openfoam.com                      |
|    \\/     M anipulation  |                                                 |
\*---------------------------------------------------------------------------*/
FoamFile
{
    version     2.0;
    format      ascii;
    arch        "LSB;label=32;scalar=64";
    class       volScalarField;
    location    "3";
    object      T;
}
// * * * * * * * * * * * * * * * * * * * * * * * * * * * * * * * * * * * * * //

dimensions      [0 0 0 1 0 0 0];

internalField   nonuniform List<scalar> 
4000
(
310.87529
312.18995
312.44489
312.51259
312.59154
312.6435
312.69355
312.73681
312.77866
312.8168
312.85496
312.89046
312.92633
312.9603
312.99457
313.02755
313.06064
313.09293
313.12511
313.15692
313.18838
313.21982
313.25069
313.28188
313.31225
313.34324
313.3732
313.40403
313.43363
313.46435
313.49363
313.52428
313.55327
313.58386
313.6126
313.64315
313.67165
313.70219
313.73046
313.76101
313.78906
313.81964
313.84747
313.87811
313.90569
313.93646
313.96373
313.99473
314.02147
314.05347
308.63731
310.76271
311.46008
311.60749
311.78724
311.88666
311.98018
312.05349
312.12248
312.18039
312.23835
312.28834
312.33944
312.38485
312.43114
312.47358
312.51633
312.55672
312.59674
312.63567
312.67352
312.71138
312.74746
312.78452
312.81913
312.8556
312.88896
312.92497
312.95725
312.99293
313.02426
313.05969
313.09017
313.12544
313.15514
313.19031
313.2193
313.25442
313.28273
313.31788
313.34553
313.38076
313.40774
313.44317
313.46941
313.50519
313.5305
313.56701
313.59072
313.63009
307.25491
309.38942
310.48339
310.7086
310.98651
311.13281
311.26914
311.37233
311.46814
311.54578
311.62332
311.6878
311.75395
311.81081
311.869
311.92094
311.97323
312.02175
312.06952
312.1156
312.15977
312.20406
312.2453
312.28826
312.32706
312.36902
312.40574
312.44695
312.48188
312.52253
312.55587
312.59611
312.62804
312.668
312.69865
312.73844
312.7679
312.80761
312.83595
312.87569
312.90293
312.94283
312.96895
313.00916
313.03405
313.07485
313.0982
313.1402
313.16092
313.20732
306.34124
308.11932
309.52903
309.82455
310.19478
310.38609
310.56364
310.69609
310.81793
310.91508
311.01169
311.09056
311.17141
311.23969
311.30951
311.37092
311.43255
311.48921
311.54456
311.5978
311.64816
311.6989
311.74518
311.79406
311.83695
311.88442
311.92442
311.97085
312.00834
312.05398
312.08928
312.13434
312.16767
312.21233
312.24388
312.28829
312.31819
312.36249
312.39083
312.43517
312.46198
312.50653
312.53178
312.57677
312.60031
312.6461
312.66751
312.71495
312.73278
312.78572
305.70779
306.9905
308.61534
308.96699
309.41951
309.65211
309.86806
310.02845
310.17497
310.29107
310.4059
310.49888
310.59384
310.67338
310.75437
310.82518
310.89581
310.96056
311.02322
311.0836
311.13992
311.1971
311.24824
311.30303
311.34986
311.40285
311.446
311.49763
311.5376
311.58822
311.62539
311.67526
311.70993
311.75928
311.79168
311.8407
311.871
311.91987
311.94818
311.99709
312.02345
312.07263
312.097
312.14672
312.16891
312.21966
312.23915
312.29193
312.30703
312.36594
305.25549
306.03131
307.76173
308.14949
308.66969
308.93773
309.18781
309.37392
309.54307
309.67712
309.80892
309.91546
310.02365
310.11412
310.20566
310.28565
310.3648
310.43749
310.50708
310.57451
310.63649
310.70004
310.7558
310.81645
310.86701
310.92548
310.97161
311.02842
311.07072
311.12629
311.16522
311.21987
311.25578
311.30979
311.34296
311.39656
311.42719
311.4806
311.50883
311.56228
311.58816
311.64191
311.66539
311.71979
311.74066
311.79626
311.81391
311.87187
311.88447
311.94872
304.92514
305.25233
306.98523
307.38622
307.95507
308.25061
308.52903
308.73763
308.92662
309.07709
309.22415
309.34337
309.46362
309.56448
309.66571
309.75453
309.84154
309.92194
309.99795
310.07226
310.13949
310.20928
310.26932
310.33573
310.38976
310.45361
310.50251
310.56443
310.60888
310.66933
310.70986
310.76923
310.80627
310.86487
310.89872
310.95683
310.98773
311.0456
311.07371
311.13162
311.15699
311.21523
311.23783
311.2968
311.31636
311.37669
311.39258
311.4555
311.4659
311.53488
304.67939
304.65109
306.29878
306.69019
307.28523
307.59867
307.89825
308.12509
308.33037
308.49518
308.6553
308.78599
308.91681
309.02727
309.13711
309.23422
309.32828
309.41601
309.4978
309.57869
309.65067
309.72649
309.79041
309.86241
309.91957
309.98866
310.04005
310.10695
310.15333
310.21855
310.26051
310.32449
310.3625
310.4256
310.46001
310.52253
310.55362
310.61585
310.64378
310.70603
310.73087
310.79348
310.81518
310.87859
310.89689
310.96176
310.97602
311.0436
311.05212
311.12526
304.49304
304.21243
305.70913
306.07155
306.66869
306.9895
307.30196
307.54189
307.75925
307.93573
308.10629
308.24686
308.38644
308.50546
308.62258
308.72727
308.82738
308.9219
309.00871
309.0958
309.17191
309.25345
309.32075
309.39808
309.45798
309.53211
309.58567
309.65735
309.7054
309.77522
309.81841
309.88684
309.92566
309.9931
310.02795
310.09473
310.1259
310.19235
310.22004
310.28648
310.31076
310.37757
310.39839
310.46604
310.48315
310.55232
310.56508
310.63698
310.64396
310.72071
304.34852
303.91308
305.21735
305.53626
306.11215
306.42974
306.74618
306.99339
307.21806
307.40306
307.58104
307.72955
307.87578
308.00207
308.12495
308.23628
308.34129
308.44193
308.53286
308.62562
308.70517
308.79199
308.86212
308.94444
309.00662
309.08549
309.14085
309.21707
309.26648
309.34068
309.38484
309.45752
309.49696
309.56854
309.60368
309.67453
309.70568
309.77615
309.80352
309.87396
309.89764
309.96844
309.9884
310.06004
310.07603
310.14922
310.16066
310.23646
310.24224
310.32212
304.23333
303.72508
304.81882
305.08552
305.62003
305.9246
306.23599
306.48435
306.71123
306.90122
307.08328
307.23749
307.38805
307.52006
307.647
307.76386
307.87247
307.97839
308.07244
308.17021
308.25239
308.344
308.41631
308.50318
308.56713
308.65037
308.70711
308.78754
308.83798
308.91627
308.96112
309.03778
309.07762
309.15309
309.18836
309.26303
309.29405
309.36829
309.39528
309.46946
309.49252
309.56705
309.58616
309.66152
309.67647
309.75332
309.76362
309.8429
309.84777
309.93034
304.13872
303.61974
304.50467
304.71612
305.19421
305.47737
305.77521
306.01862
306.24256
306.43377
306.61641
306.77385
306.92625
307.06225
307.19138
307.31251
307.42331
307.53353
307.62959
307.7316
307.81554
307.91129
307.98508
308.076
308.14113
308.2283
308.28596
308.37021
308.42131
308.50332
308.54858
308.62889
308.6689
308.74795
308.78316
308.86136
308.89211
308.96984
308.99636
309.07399
309.0964
309.17435
309.19264
309.27138
309.28538
309.36552
309.37486
309.45716
309.46138
309.54623
304.05853
303.57032
304.26309
304.42139
304.83389
305.08919
305.36608
305.59891
305.81494
306.00361
306.18329
306.34139
306.49303
306.63117
306.76054
306.88452
306.996
307.10944
307.20632
307.31171
307.39647
307.49565
307.57016
307.66451
307.73023
307.8208
307.87887
307.96649
308.01784
308.10316
308.14851
308.23208
308.272
308.35428
308.38924
308.47063
308.50097
308.58184
308.60782
308.68855
308.71028
308.79129
308.80879
308.89053
308.90367
308.98669
308.99523
309.08009
309.08385
309.17063
303.98874
303.55469
304.08122
304.19223
304.53574
304.75903
305.00918
305.22659
305.43024
305.61276
305.78611
305.94228
306.0906
306.22894
306.35659
306.48193
306.59256
306.70802
306.80451
306.91232
306.99691
307.09872
307.17316
307.27026
307.33592
307.42929
307.48727
307.57772
307.6289
307.71706
307.76215
307.84855
307.88812
307.9732
308.00772
308.09189
308.12169
308.20532
308.23065
308.31411
308.33512
308.4188
308.43552
308.51985
308.53223
308.61767
308.62556
308.71253
308.71599
308.80435
303.92654
303.55585
303.94629
304.01818
304.29436
304.48384
304.70337
304.9016
305.08914
305.26233
305.42625
305.57804
305.72061
305.85722
305.98123
306.10641
306.21464
306.3309
306.42577
306.53496
306.6184
306.72198
306.79554
306.89464
306.95958
307.05512
307.11245
307.20516
307.25573
307.3462
307.39068
307.47942
307.51836
307.6058
307.63965
307.72616
307.75527
307.84123
307.86583
307.95159
307.97184
308.05776
308.07374
308.16021
308.1719
308.25931
308.26668
308.35529
308.35855
308.44815
303.87032
303.56251
303.84674
303.88853
304.10285
304.25894
304.44598
304.62257
304.79116
304.95238
305.10425
305.24943
305.38404
305.51711
305.63566
305.75919
305.86356
305.97937
306.0714
306.18094
306.26223
306.36669
306.43855
306.53889
306.60243
306.69945
306.75559
306.84993
306.89945
306.99166
307.03518
307.12572
307.16376
307.25304
307.28603
307.37441
307.40267
307.49049
307.51427
307.60186
307.62132
307.70903
307.72426
307.81242
307.82347
307.91238
307.91932
308.00914
308.01227
308.10277
303.81892
303.56779
303.77274
303.79313
303.95356
304.07851
304.23309
304.38687
304.53471
304.682
304.81975
304.95647
305.08123
305.20911
305.32059
305.44105
305.5402
305.65434
305.74241
305.85125
305.92945
306.03386
306.10325
306.20401
306.26552
306.36328
306.4177
306.51302
306.56104
306.6544
306.69659
306.78839
306.82524
306.91584
306.94774
307.03748
307.06473
307.15393
307.17678
307.26574
307.28436
307.37336
307.38787
307.47722
307.4877
307.57763
307.58421
307.6748
307.67784
307.76889
303.77175
303.56863
303.71643
303.72303
303.8387
303.93608
304.05984
304.1909
304.31722
304.44939
304.5716
304.6984
304.81182
304.93312
305.03616
305.15227
305.24499
305.35634
305.43941
305.54654
305.62076
305.72424
305.79041
305.89079
305.94963
306.04742
306.09959
306.19523
306.24133
306.33521
306.37573
306.4682
306.50358
306.59496
306.62555
306.71614
306.74223
306.83229
306.85412
306.94393
306.96166
307.05148
307.06524
307.15531
307.16524
307.25572
307.26199
307.35292
307.35587
307.44712
303.72827
303.56416
303.67193
303.67084
303.75096
303.8251
303.92086
304.03037
304.13535
304.25196
304.35788
304.4738
304.57482
304.68844
304.78195
304.89263
304.97791
305.08544
305.16261
305.26709
305.33656
305.43825
305.50052
305.59974
305.65534
305.75243
305.80188
305.89716
305.94094
306.03472
306.07324
306.1658
306.19945
306.29104
306.32013
306.41101
306.43579
306.5262
306.5469
306.63706
306.65385
306.74398
306.75699
306.84728
306.85668
306.94725
306.95322
307.04408
307.04694
307.13803
303.68825
303.55508
303.63508
303.6308
303.68383
303.73931
303.81066
303.90059
303.98525
304.08656
304.17608
304.28063
304.36866
304.47382
304.55705
304.66143
304.7385
304.84133
304.91187
305.01285
305.0769
305.176
305.23379
305.3311
305.38297
305.47866
305.52495
305.61922
305.66031
305.75337
305.7896
305.88165
305.91332
306.00457
306.03196
306.1226
306.14594
306.23617
306.25565
306.34565
306.36143
306.45138
306.46362
306.55366
306.56251
306.65272
306.6584
306.74878
306.75154
306.84209
303.65135
303.54248
303.60313
303.59867
303.63186
303.67307
303.72391
303.79679
303.8628
303.94965
304.02323
304.11638
304.19129
304.28755
304.36008
304.45752
304.52586
304.62329
304.68664
304.78341
304.84152
304.93731
304.99015
305.08486
305.13255
305.22619
305.26895
305.36159
305.39967
305.49141
305.52507
305.61605
305.64553
305.73588
305.76141
305.85127
305.87304
305.96257
305.98074
306.07008
306.08481
306.17409
306.18553
306.27484
306.28315
306.37256
306.37793
306.46744
306.47007
306.55972
303.61736
303.52768
303.57439
303.57156
303.59069
303.62156
303.65578
303.71438
303.76383
303.83751
303.89611
303.97825
304.0403
304.12754
304.18928
304.2794
304.33872
304.43023
304.48605
304.57802
304.6298
304.7217
304.7692
304.86071
304.90389
304.99488
305.03381
305.12422
305.15904
305.2489
305.27977
305.36912
305.39623
305.48515
305.50866
305.59724
305.61731
305.70565
305.72243
305.81063
305.82425
305.91239
305.92299
306.01115
306.01887
306.10708
306.1121
306.20036
306.20284
306.29123
303.58598
303.51168
303.54792
303.54759
303.55704
303.58085
303.60204
303.64916
303.68435
303.74645
303.79138
303.86321
303.91303
303.99143
304.04259
304.12525
304.17553
304.26079
304.30892
304.39565
304.44089
304.52838
304.57031
304.65811
304.69653
304.78434
304.8192
304.90688
304.93822
305.02568
305.05358
305.14081
305.16538
305.25239
305.27375
305.36057
305.37885
305.46553
305.48083
305.56743
305.57989
305.66646
305.67618
305.76276
305.76988
305.85647
305.86114
305.94777
305.95009
306.03684
303.55699
303.49531
303.52321
303.52562
303.52857
303.54789
303.55918
303.5974
303.62071
303.67295
303.70576
303.76822
303.80673
303.8767
303.91776
303.99304
304.03448
304.11334
304.1538
304.23502
304.27364
304.35637
304.3926
304.47626
304.50978
304.59398
304.62462
304.70911
304.73682
304.82143
304.84622
304.93087
304.95279
305.03743
305.05655
305.14116
305.15757
305.24215
305.25593
305.34051
305.35175
305.43634
305.44515
305.52975
305.53623
305.62086
305.62513
305.70979
305.71192
305.7967
303.53016
303.47904
303.50004
303.50505
303.50367
303.52039
303.52437
303.55599
303.56966
303.61378
303.63612
303.69033
303.71862
303.78079
303.81243
303.88058
303.91359
303.98607
304.01908
304.09463
304.12672
304.20444
304.23498
304.31419
304.34277
304.423
304.44936
304.53026
304.55428
304.63563
304.65725
304.7389
304.75811
304.83996
304.85679
304.93878
304.95327
305.03536
305.04757
305.12973
305.13973
305.22196
305.22982
305.3121
305.31791
305.40022
305.40407
305.48644
305.48836
305.57085
303.50526
303.46319
303.47831
303.48559
303.4813
303.49674
303.49547
303.52239
303.52845
303.56608
303.57963
303.62674
303.64606
303.70116
303.72424
303.78568
303.81081
303.87708
303.903
303.97289
303.99866
304.07124
304.0962
304.17075
304.19444
304.27043
304.29252
304.36954
304.38985
304.46762
304.48603
304.56436
304.58082
304.65954
304.67404
304.75306
304.7656
304.84484
304.85546
304.93486
304.94359
305.02312
305.03002
305.10964
305.11477
305.19446
305.19786
305.27763
305.27933
305.35924
303.4821
303.4479
303.45796
303.46713
303.46085
303.47585
303.47088
303.4946
303.49483
303.52743
303.53377
303.57494
303.58656
303.6354
303.65087
303.70612
303.72407
303.78442
303.80372
303.86806
303.88785
303.95527
303.97489
304.04467
304.06361
304.13517
304.15309
304.226
304.24266
304.31659
304.33183
304.40654
304.42027
304.49557
304.50775
304.58349
304.59409
304.67018
304.67919
304.75554
304.76299
304.83953
304.84545
304.92214
304.92655
305.00335
305.00629
305.08319
305.08466
305.16171
303.46053
303.43322
303.43895
303.44963
303.44193
303.45699
303.44946
303.47112
303.46698
303.4958
303.4964
303.53271
303.53787
303.58129
303.59016
303.63981
303.65134
303.70616
303.71943
303.77843
303.79266
303.855
303.86957
303.93456
303.94899
304.01604
304.02994
304.0986
304.11171
304.18162
304.19377
304.26465
304.27571
304.34735
304.35724
304.42947
304.43814
304.51083
304.51825
304.5913
304.59747
304.67078
304.67571
304.74922
304.75292
304.82659
304.82906
304.90286
304.9041
304.97805
303.4404
303.41917
303.42124
303.43311
303.42436
303.43972
303.43045
303.45084
303.44354
303.46959
303.46573
303.49814
303.49804
303.53684
303.54011
303.58478
303.59071
303.64043
303.6483
303.70225
303.71142
303.76885
303.77877
303.83903
303.84922
303.91175
303.92186
303.98618
303.99593
304.06169
304.07088
304.13778
304.14626
304.21408
304.22175
304.29028
304.29707
304.36617
304.37204
304.44158
304.4465
304.51637
304.52033
304.59046
304.59345
304.66377
304.66578
304.73627
304.73728
304.80794
303.42158
303.40574
303.40477
303.41757
303.40802
303.42378
303.41335
303.43301
303.42347
303.44753
303.44031
303.46964
303.46536
303.50029
303.49892
303.53923
303.54038
303.58548
303.58864
303.63788
303.64253
303.69528
303.70097
303.75663
303.76295
303.821
303.82759
303.88758
303.89417
303.95574
303.96213
304.02497
304.031
304.09488
304.10043
304.16513
304.17012
304.23548
304.23985
304.30573
304.30943
304.37571
304.37872
304.44532
304.4476
304.51444
304.51598
304.58301
304.58378
304.65098
303.40397
303.39293
303.38949
303.40302
303.39288
303.40903
303.39782
303.41708
303.40602
303.42867
303.419
303.44593
303.43842
303.47015
303.46505
303.50157
303.49874
303.5397
303.53882
303.58373
303.58444
303.63277
303.63472
303.68597
303.68879
303.74248
303.74586
303.80158
303.80526
303.86265
303.86644
303.92519
303.92893
303.98881
303.99237
304.05316
304.05645
304.11798
304.12092
304.18304
304.18558
304.24816
304.25025
304.3132
304.3148
304.37803
304.37912
304.44256
304.44312
304.50673
303.38751
303.38074
303.37534
303.38946
303.37889
303.39539
303.38369
303.40272
303.39066
303.41232
303.40092
303.42599
303.41606
303.44516
303.43713
303.47041
303.46435
303.50164
303.4974
303.53835
303.53571
303.57993
303.57861
303.62568
303.62541
303.67491
303.67542
303.72697
303.72802
303.78129
303.78271
303.8374
303.83903
303.89491
303.89662
303.95349
303.95518
304.01284
304.01444
304.07275
304.07418
304.133
304.13422
304.19345
304.19441
304.25395
304.25461
304.31438
304.31472
304.37467
303.37212
303.36917
303.36231
303.3769
303.36605
303.38281
303.37082
303.3897
303.37704
303.39796
303.38541
303.40903
303.39737
303.4243
303.41406
303.44457
303.43597
303.47002
303.46305
303.50044
303.49499
303.53542
303.53133
303.57447
303.57153
303.61704
303.61503
303.66256
303.66129
303.71054
303.70984
303.76054
303.76027
303.81219
303.81223
303.86517
303.86541
303.9192
303.91957
303.97404
303.97446
304.02949
304.0299
304.08537
304.08573
304.14154
304.1418
304.19786
304.198
304.25424
303.35777
303.35827
303.35038
303.36535
303.35436
303.37128
303.35915
303.37788
303.3649
303.38524
303.37199
303.39444
303.38161
303.40674
303.39491
303.42306
303.41252
303.44374
303.43461
303.4688
303.46108
303.49805
303.49166
303.53116
303.52596
303.5677
303.56354
303.60723
303.60394
303.64932
303.64675
303.69357
303.69161
303.73967
303.7382
303.7873
303.78622
303.83619
303.83543
303.88611
303.88559
303.93685
303.93652
303.98824
303.98804
304.04012
304.04001
304.09235
304.0923
304.14483
303.34445
303.3481
303.33956
303.35484
303.34382
303.36081
303.34866
303.36719
303.35409
303.37392
303.3603
303.38177
303.36822
303.39185
303.37892
303.40505
303.39311
303.42185
303.41109
303.44242
303.43293
303.46674
303.4585
303.49463
303.48758
303.5258
303.51983
303.5599
303.55489
303.59657
303.5924
303.63549
303.63206
303.67637
303.67358
303.71892
303.71669
303.76291
303.76115
303.80809
303.80674
303.85428
303.85328
303.9013
303.90059
303.94898
303.94853
303.99719
303.99697
304.0458
303.33224
303.33875
303.32989
303.34538
303.33443
303.35138
303.33929
303.35756
303.3445
303.36383
303.35008
303.37071
303.35678
303.37911
303.36551
303.38988
303.377
303.40356
303.39163
303.42041
303.40958
303.44054
303.43087
303.46391
303.45539
303.49033
303.4829
303.51956
303.51313
303.55131
303.5458
303.58533
303.58066
303.62136
303.61744
303.65916
303.65592
303.6985
303.69587
303.73917
303.73709
303.78099
303.7794
303.82378
303.82263
303.86739
303.86665
303.91167
303.9113
303.9565
303.32129
303.33036
303.32142
303.337
303.32619
303.34299
303.33103
303.34896
303.33603
303.35484
303.34116
303.361
303.34695
303.36814
303.35421
303.37703
303.36358
303.38821
303.37551
303.40201
303.39024
303.41862
303.4079
303.4381
303.42846
303.46038
303.4518
303.48528
303.47773
303.51262
303.50602
303.54217
303.53647
303.57374
303.56888
303.60712
303.60304
303.64211
303.63875
303.67853
303.67582
303.7162
303.7141
303.75495
303.75341
303.79463
303.79363
303.83512
303.83462
303.87627
303.31188
303.32308
303.31419
303.32973
303.3191
303.33563
303.32385
303.34134
303.32862
303.34687
303.33338
303.35246
303.3385
303.35864
303.34463
303.36607
303.35237
303.37527
303.36213
303.38659
303.37422
303.40027
303.38883
303.41645
303.40601
303.43514
303.42571
303.45625
303.44782
303.47964
303.47219
303.50517
303.49865
303.53267
303.52705
303.56198
303.55721
303.59294
303.58896
303.62537
303.62214
303.65912
303.6566
303.69404
303.69218
303.72999
303.72876
303.76682
303.76622
303.80444
303.30434
303.31703
303.30824
303.32356
303.31312
303.32926
303.31769
303.33466
303.32221
303.33985
303.32664
303.34496
303.33123
303.35039
303.3365
303.35669
303.34296
303.36431
303.351
303.37362
303.36094
303.38488
303.37301
303.39828
303.38731
303.4139
303.40388
303.43169
303.42265
303.45161
303.44353
303.47353
303.4664
303.49736
303.49116
303.52297
303.51765
303.55021
303.54574
303.57894
303.57529
303.60903
303.60616
303.64034
303.63822
303.67274
303.67134
303.70611
303.70542
303.74034
303.29889
303.3123
303.30354
303.31846
303.30821
303.32385
303.31252
303.32888
303.31674
303.33371
303.32085
303.33838
303.325
303.3432
303.32959
303.34861
303.33505
303.35499
303.34173
303.36267
303.34992
303.37194
303.35988
303.38302
303.37177
303.39602
303.38565
303.41096
303.40151
303.42782
303.41931
303.44656
303.43899
303.4671
303.46046
303.48934
303.48362
303.51319
303.50835
303.53852
303.53454
303.56521
303.56207
303.59315
303.59082
303.62223
303.62068
303.65232
303.65155
303.68333
303.29553
303.30885
303.30004
303.31438
303.30429
303.31932
303.30825
303.32394
303.31214
303.32838
303.31591
303.33264
303.31968
303.33695
303.32372
303.34163
303.32838
303.34701
303.33397
303.35339
303.34075
303.36103
303.34898
303.37018
303.35884
303.38096
303.37044
303.39345
303.38379
303.40767
303.39891
303.4236
303.41576
303.44121
303.43429
303.46044
303.45444
303.4812
303.47611
303.50342
303.49921
303.52699
303.52365
303.55181
303.54932
303.57778
303.57613
303.6048
303.60398
303.63278
303.29393
303.30653
303.29759
303.31122
303.30128
303.31561
303.30482
303.31977
303.30832
303.32379
303.31176
303.32766
303.31516
303.33151
303.31874
303.33559
303.32276
303.34016
303.32747
303.34548
303.33311
303.3518
303.33992
303.35934
303.3481
303.36826
303.35776
303.37867
303.36896
303.3906
303.38175
303.40408
303.39611
303.41911
303.41204
303.43564
303.42948
303.45364
303.44839
303.47303
303.46868
303.49374
303.49028
303.51569
303.5131
303.53878
303.53706
303.56294
303.56208
303.58808
303.29355
303.3051
303.29602
303.30884
303.29906
303.31263
303.30212
303.31629
303.30522
303.31988
303.3083
303.32336
303.31136
303.32679
303.31453
303.33036
303.31802
303.33426
303.32202
303.33872
303.32673
303.34395
303.33238
303.35016
303.33915
303.35753
303.34718
303.36617
303.35655
303.37615
303.36732
303.3875
303.37952
303.40025
303.39315
303.41441
303.40819
303.42993
303.4246
303.44678
303.44235
303.46489
303.46135
303.48421
303.48156
303.50465
303.50289
303.52616
303.52528
303.54866
303.29385
303.30431
303.29515
303.30711
303.29751
303.31026
303.30007
303.31342
303.30275
303.31658
303.30547
303.31966
303.30819
303.3227
303.31099
303.32582
303.31402
303.32917
303.31743
303.33291
303.32138
303.33724
303.32607
303.34236
303.33168
303.34844
303.33835
303.35558
303.34617
303.36388
303.35521
303.3734
303.36552
303.38418
303.37713
303.39623
303.39004
303.40956
303.40424
303.42412
303.41969
303.43989
303.43634
303.45682
303.45416
303.47485
303.47308
303.49392
303.49303
303.51397
303.29439
303.3039
303.29478
303.30587
303.29649
303.30842
303.29856
303.31108
303.30083
303.31381
303.30318
303.31651
303.30557
303.31917
303.30803
303.32188
303.31066
303.32475
303.31356
303.32789
303.31688
303.33148
303.32078
303.3357
303.32542
303.34069
303.33095
303.34658
303.33745
303.35346
303.34502
303.3614
303.3537
303.37046
303.36355
303.38068
303.37459
303.39206
303.38682
303.4046
303.40021
303.41827
303.41475
303.43304
303.43039
303.44887
303.4471
303.46571
303.46482
303.48351
303.29495
303.30369
303.29475
303.30501
303.2959
303.307
303.29751
303.30919
303.29937
303.3115
303.30136
303.31382
303.30342
303.31613
303.30556
303.31846
303.30783
303.3209
303.3103
303.32354
303.31308
303.32651
303.31632
303.32997
303.32016
303.33406
303.32473
303.33889
303.33012
303.34456
303.33643
303.35116
303.34371
303.35874
303.35204
303.36736
303.36144
303.37704
303.37192
303.38777
303.38348
303.39957
303.39612
303.4124
303.40981
303.42624
303.42451
303.44105
303.44019
303.4568
303.29544
303.30357
303.29492
303.30441
303.29562
303.3059
303.29681
303.30766
303.29829
303.30958
303.29994
303.31154
303.30169
303.3135
303.30351
303.31549
303.30544
303.31754
303.30753
303.31974
303.30986
303.32218
303.31254
303.32501
303.31571
303.32834
303.31947
303.33229
303.32393
303.33694
303.32916
303.34239
303.33525
303.3487
303.34225
303.35593
303.35022
303.36411
303.35917
303.37327
303.36912
303.3834
303.38006
303.3945
303.39198
303.40655
303.40487
303.41953
303.41869
303.43341
303.29584
303.30347
303.29521
303.30397
303.29556
303.30506
303.29639
303.30643
303.29752
303.30798
303.29885
303.3096
303.30029
303.31123
303.30181
303.31289
303.30343
303.3146
303.30517
303.3164
303.3071
303.31839
303.30931
303.32068
303.3119
303.32338
303.31499
303.32658
303.31865
303.33037
303.32298
303.33484
303.32804
303.34006
303.33391
303.34609
303.34063
303.35298
303.34824
303.36075
303.35676
303.36941
303.36619
303.37897
303.37654
303.38942
303.3878
303.40075
303.39993
303.41293
303.29617
303.30335
303.29555
303.30362
303.29565
303.30439
303.29617
303.30543
303.297
303.30665
303.29802
303.30794
303.29917
303.30926
303.3004
303.31061
303.30172
303.31199
303.30314
303.31344
303.30471
303.31504
303.30651
303.31687
303.30862
303.31902
303.31113
303.32159
303.31413
303.32466
303.31768
303.3283
303.32186
303.33259
303.32675
303.33759
303.3324
303.34335
303.33884
303.34991
303.3461
303.35728
303.35421
303.36547
303.36316
303.3745
303.37295
303.38435
303.38357
303.39501
303.29643
303.3032
303.2959
303.30333
303.29581
303.30384
303.2961
303.3046
303.29665
303.30552
303.2974
303.30651
303.29826
303.30753
303.29921
303.30858
303.30025
303.30966
303.30138
303.31079
303.30263
303.31204
303.30406
303.31347
303.30575
303.31516
303.30777
303.3172
303.3102
303.31965
303.31309
303.32259
303.31653
303.32608
303.32058
303.3302
303.3253
303.33499
303.33072
303.34049
303.33689
303.34673
303.34382
303.35372
303.35153
303.36149
303.36001
303.37002
303.36928
303.37931
303.29665
303.30301
303.29624
303.30305
303.29602
303.30337
303.29611
303.30389
303.29643
303.30454
303.29692
303.30526
303.29752
303.30599
303.2982
303.30675
303.29896
303.30754
303.29981
303.30838
303.30077
303.30932
303.30188
303.3104
303.3032
303.3117
303.3048
303.31328
303.30674
303.31521
303.30907
303.31755
303.31188
303.32036
303.31521
303.32372
303.31912
303.32767
303.32366
303.33226
303.32887
303.33752
303.33478
303.34346
303.34139
303.35011
303.34872
303.35747
303.35677
303.36554
303.29681
303.30278
303.29653
303.30276
303.29624
303.30293
303.29618
303.30326
303.29629
303.30367
303.29654
303.30412
303.29689
303.30459
303.29731
303.30508
303.29781
303.3056
303.29839
303.30617
303.29907
303.30681
303.29989
303.30759
303.30089
303.30855
303.30213
303.30974
303.30365
303.31122
303.3055
303.31305
303.30776
303.31529
303.31047
303.318
303.3137
303.32123
303.31748
303.32503
303.32186
303.32943
303.32686
303.33445
303.33251
303.34012
303.33882
303.34645
303.34579
303.35344
303.29693
303.30252
303.29679
303.30246
303.29645
303.30252
303.29626
303.30267
303.29619
303.30287
303.29622
303.30307
303.29632
303.30329
303.29649
303.30351
303.29673
303.30377
303.29706
303.30408
303.29749
303.30447
303.29804
303.30497
303.29876
303.30563
303.29967
303.30649
303.30083
303.30759
303.30228
303.30898
303.30407
303.31073
303.30625
303.31289
303.30889
303.31551
303.31202
303.31863
303.31567
303.32229
303.31989
303.32651
303.32469
303.33132
303.3301
303.33673
303.33612
303.34276
303.29701
303.30222
303.297
303.30213
303.29663
303.30211
303.29634
303.30211
303.2961
303.3021
303.29591
303.30207
303.29577
303.30203
303.29569
303.30201
303.29569
303.30202
303.29578
303.30209
303.29597
303.30224
303.29628
303.30249
303.29674
303.30289
303.29737
303.30345
303.29822
303.30423
303.29931
303.30526
303.3007
303.30659
303.30244
303.30828
303.30456
303.31037
303.30713
303.31291
303.31016
303.31592
303.3137
303.31945
303.31776
303.32351
303.32238
303.32813
303.32756
303.33331
303.29705
303.30189
303.29716
303.30177
303.29676
303.30167
303.29638
303.30153
303.29597
303.30132
303.29557
303.30106
303.29519
303.30078
303.29488
303.30052
303.29464
303.3003
303.2945
303.30014
303.29446
303.30007
303.29455
303.30011
303.29478
303.30027
303.29517
303.30058
303.29575
303.30107
303.29654
303.30179
303.29758
303.30277
303.29893
303.30406
303.30062
303.3057
303.3027
303.30774
303.3052
303.3102
303.30814
303.31313
303.31157
303.31654
303.31549
303.32046
303.31993
303.3249
303.29704
303.30155
303.29727
303.30139
303.29685
303.30122
303.29637
303.30092
303.29579
303.30051
303.29517
303.30002
303.29456
303.2995
303.29401
303.299
303.29355
303.29857
303.29319
303.2982
303.29294
303.29793
303.29283
303.29776
303.29285
303.29772
303.29302
303.29781
303.29336
303.29807
303.29388
303.29851
303.29464
303.29919
303.29565
303.30014
303.29698
303.30141
303.29864
303.30302
303.30067
303.30501
303.30311
303.30742
303.30598
303.31027
303.3093
303.31358
303.31309
303.31737
303.29699
303.30118
303.29733
303.30097
303.29689
303.30072
303.29629
303.30026
303.29552
303.29963
303.29467
303.2989
303.29383
303.29815
303.29305
303.29744
303.29237
303.29679
303.29181
303.29623
303.29137
303.29578
303.29107
303.29543
303.2909
303.29521
303.29088
303.29511
303.29101
303.29516
303.29131
303.29538
303.29181
303.2958
303.29255
303.29647
303.29355
303.29741
303.29486
303.29866
303.2965
303.30025
303.2985
303.30221
303.30089
303.30458
303.30368
303.30736
303.30691
303.31058
303.2969
303.30079
303.29734
303.30053
303.29686
303.30016
303.29612
303.29951
303.29513
303.29865
303.29404
303.29768
303.29297
303.29671
303.29197
303.29578
303.29108
303.29494
303.29033
303.29421
303.28971
303.29359
303.28924
303.29308
303.28891
303.2927
303.28871
303.29244
303.28866
303.29231
303.28877
303.29233
303.28906
303.29254
303.28955
303.29296
303.29029
303.29363
303.29129
303.29458
303.29259
303.29583
303.29422
303.29742
303.29619
303.29936
303.29854
303.30169
303.30127
303.30441
303.29677
303.3004
303.2973
303.30006
303.29675
303.29953
303.29583
303.29865
303.29459
303.29754
303.29326
303.29633
303.29194
303.29513
303.29073
303.29401
303.28965
303.29299
303.28872
303.2921
303.28795
303.29133
303.28732
303.29068
303.28684
303.29016
303.2865
303.28976
303.28629
303.28948
303.28623
303.28934
303.28634
303.28937
303.28663
303.28959
303.28714
303.29003
303.28788
303.29072
303.2889