/*--------------------------------*- C++ -*----------------------------------*\
| =========                 |                                                 |
| \\      /  F ield         | OpenFOAM: The Open Source CFD Toolbox           |
|  \\    /   O peration     | Version:  2312                                  |
|   \\  /    A nd           | Website:  www.openfoam.com                      |
|    \\/     M anipulation  |                                                 |
\*---------------------------------------------------------------------------*/
FoamFile
{
    version     2.0;
    format      ascii;
    arch        "LSB;label=32;scalar=64";
    class       volScalarField;
    location    "1";
    object      T;
}
// * * * * * * * * * * * * * * * * * * * * * * * * * * * * * * * * * * * * * //

dimensions      [0 0 0 1 0 0 0];

internalField   nonuniform List<scalar> 
4000
(
318.76913
317.8357
317.65678
317.60011
317.54578
317.50114
317.46402
317.4269
317.39572
317.36161
317.33339
317.30141
317.27497
317.2448
317.21976
317.19115
317.16721
317.13984
317.11665
317.09017
317.06742
317.04154
317.01895
316.99345
316.97088
316.94562
316.92297
316.89788
316.87513
316.85016
316.8273
316.80245
316.7795
316.75474
316.73173
316.70705
316.68399
316.65938
316.63629
316.61171
316.58861
316.56404
316.54096
316.51638
316.49333
316.4687
316.44572
316.42099
316.39824
316.37282
320.34393
318.8318
318.35142
318.22994
318.11619
318.03125
317.96884
317.9065
317.86187
317.80853
317.77274
317.72575
317.69528
317.6537
317.62743
317.5905
317.56751
317.53429
317.51357
317.48305
317.46364
317.43494
317.41608
317.38853
317.36971
317.34289
317.32386
317.29754
317.27818
317.25225
317.23259
317.20699
317.18706
317.16175
317.14162
317.11655
317.09629
317.07139
317.05105
317.02626
317.0059
316.98115
316.96082
316.93603
316.9158
316.89088
316.87087
316.8456
316.82629
316.7991
321.31598
319.78958
319.0402
318.85568
318.68398
318.55933
318.47189
318.38467
318.32659
318.25423
318.21078
318.14888
318.11417
318.06117
318.03337
317.98805
317.96569
317.92655
317.90801
317.87342
317.85712
317.8256
317.81028
317.78071
317.76552
317.7372
317.72167
317.69419
317.67815
317.65131
317.63476
317.60847
317.59149
317.56566
317.54836
317.52292
317.5054
317.48025
317.46261
317.43763
317.41996
317.39504
317.37743
317.35245
317.335
317.30981
317.29272
317.26697
317.251
317.22237
321.9602
320.67709
319.71313
319.47148
319.24528
319.08253
318.97087
318.85956
318.78819
318.6973
318.64612
318.56958
318.53036
318.46601
318.43626
318.38251
318.36031
318.31519
318.29837
318.25967
318.2461
318.21178
318.1997
318.1682
318.1564
318.12668
318.11447
318.08594
318.07307
318.04543
318.03187
318.00497
317.99081
317.96455
317.94996
317.92422
317.90934
317.88398
317.86895
317.84383
317.82876
317.80373
317.78874
317.76363
317.74887
317.72347
317.7092
317.68303
317.67027
317.64063
322.40622
321.46464
320.35729
320.06941
319.79477
319.59698
319.46268
319.32863
319.24443
319.13586
319.07701
318.98632
318.94234
318.86686
318.83469
318.77253
318.74992
318.69876
318.68311
318.64026
318.62894
318.59185
318.58262
318.54927
318.54056
318.50958
318.50046
318.47103
318.46112
318.43282
318.42205
318.39467
318.38318
318.35658
318.34455
318.31859
318.30621
318.28073
318.26816
318.24298
318.23039
318.2053
318.19283
318.16765
318.15546
318.12993
318.11834
318.09189
318.08208
318.05195
322.72582
322.13563
320.95928
320.64016
320.32605
320.09793
319.94352
319.78876
319.69261
319.56759
319.50133
319.39727
319.34838
319.26217
319.22713
319.15671
319.13307
319.07589
319.06076
319.01376
319.0041
318.96429
318.95743
318.92236
318.91635
318.88427
318.87794
318.84779
318.84058
318.8118
318.80361
318.77591
318.76687
318.74006
318.7304
318.70433
318.69427
318.66876
318.6585
318.63333
318.62306
318.59802
318.5879
318.56275
318.55297
318.52743
318.51834
318.49176
318.4846
318.45449
322.95953
322.68067
321.5069
321.17402
320.83218
320.58008
320.40911
320.2364
320.12962
319.98984
319.91669
319.80036
319.74657
319.65025
319.61198
319.53358
319.50831
319.44521
319.42991
319.37881
319.37017
319.32772
319.32269
319.28601
319.28228
319.24927
319.24537
319.2147
319.20992
319.18084
319.17499
319.14712
319.14031
319.11344
319.10592
319.07987
319.07193
319.04649
319.03835
319.0133
319.00517
318.98027
318.97232
318.94732
318.93975
318.91433
318.90751
318.88102
318.87614
318.84653
323.13385
323.10244
321.99129
321.662
321.30631
321.03793
320.85489
320.66769
320.55212
320.39973
320.32048
320.19332
320.13483
320.0293
319.98756
319.90165
319.87422
319.80539
319.78928
319.73416
319.72588
319.68086
319.67708
319.63892
319.63699
319.60323
319.6014
319.5704
319.56774
319.53856
319.53477
319.50692
319.50209
319.47531
319.46972
319.44381
319.43776
319.41251
319.40628
319.38145
319.37526
319.3506
319.34462
319.31989
319.31432
319.28917
319.28438
319.25818
319.2552
319.22652
323.26638
323.41099
322.40742
322.09695
321.74234
321.46622
321.27632
321.0787
320.95666
320.79422
320.70998
320.57373
320.511
320.39741
320.35214
320.25938
320.22938
320.15516
320.13762
320.07865
320.07007
320.02259
320.01946
319.97995
319.97933
319.94498
319.94482
319.91369
319.91282
319.88374
319.88174
319.85408
319.85099
319.82445
319.82054
319.79489
319.79052
319.76556
319.76102
319.73652
319.73205
319.70776
319.70353
319.67918
319.67538
319.65066
319.64762
319.62196
319.62048
319.59306
323.36937
323.62279
322.75483
322.47449
322.13554
321.86033
321.6692
321.46569
321.33987
321.1703
321.08245
320.93917
320.87286
320.75261
320.70396
320.60523
320.57241
320.49327
320.47379
320.4112
320.40172
320.35191
320.34885
320.30811
320.30829
320.27351
320.2746
320.24352
320.24411
320.21533
320.21483
320.18756
320.18594
320.15979
320.15733
320.13208
320.12914
320.10459
320.10151
320.07744
320.07446
320.05064
320.04793
320.02411
320.02183
319.99771
319.99611
319.97123
319.97088
319.94497
323.45169
323.75722
323.0366
322.79351
322.48289
322.21669
322.02998
321.8253
321.69866
321.52514
321.43526
321.28725
321.21826
321.09297
321.0413
320.93766
320.90194
320.81851
320.79672
320.73082
320.71992
320.66796
320.6644
320.62256
320.62304
320.58797
320.5899
320.55904
320.56076
320.53245
320.53318
320.50645
320.50607
320.48046
320.47921
320.45448
320.45275
320.42871
320.42685
320.40332
320.40159
320.37836
320.37692
320.35376
320.35274
320.32937
320.32894
320.30505
320.3055
320.28126
323.51935
323.83426
323.25916
323.05605
322.78319
322.533
322.35599
322.15479
322.03037
321.8562
321.76606
321.61574
321.54514
321.41662
321.36248
321.25518
321.21667
321.12972
321.1054
321.03663
321.02387
320.96997
320.96543
320.92262
320.92293
320.88768
320.89005
320.85956
320.86209
320.8344
320.8361
320.81007
320.81069
320.78575
320.78549
320.76139
320.76063
320.73721
320.73634
320.71345
320.71274
320.6902
320.68979
320.6674
320.66738
320.64493
320.64539
320.62267
320.62363
320.60115
323.57681
323.87247
323.43069
323.2667
323.03712
322.8084
322.64564
322.45225
322.33299
322.16142
322.07283
321.9227
321.8517
321.72186
321.66598
321.55639
321.5154
321.42583
321.39892
321.3278
321.31289
321.25733
321.25137
321.20774
321.20744
321.17214
321.17457
321.14455
321.14758
321.12065
321.12307
321.09788
321.09927
321.07514
321.07565
321.05228
321.0523
321.02958
321.02948
321.00731
321.00738
320.98562
320.986
320.9645
320.96524
320.94383
320.94491
320.9235
320.92476
320.90405
323.62676
323.8872
323.56034
323.43178
323.24708
323.04353
322.89853
322.71666
322.60523
322.43932
322.35405
322.20655
322.13641
322.00719
321.95044
321.84004
321.79704
321.70587
321.67648
321.60363
321.5864
321.5295
321.52182
321.47752
321.47624
321.44097
321.44311
321.41367
321.4169
321.39085
321.39374
321.36951
321.37148
321.34826
321.34935
321.32682
321.32739
321.30546
321.30592
321.28454
321.28518
321.26428
321.26523
321.2447
321.24596
321.22569
321.22717
321.20717
321.20855
321.18958
323.67129
323.89029
323.65692
323.55852
323.41696
323.24041
323.11545
322.94803
322.8466
322.68909
322.60875
322.46616
322.39815
322.27144
322.21477
322.10506
322.06066
321.96897
321.93738
321.86349
321.84394
321.78608
321.77645
321.73168
321.72912
321.69397
321.69552
321.66672
321.6699
321.64479
321.64795
321.62478
321.62714
321.60493
321.60642
321.58481
321.58576
321.56468
321.5655
321.54498
321.54597
321.526
321.52729
321.50781
321.50938
321.49033
321.492
321.47346
321.47483
321.45754
323.71144
323.88952
323.72852
323.65433
323.55163
323.40216
323.29824
323.14727
323.05747
322.91059
322.83657
322.70093
322.63621
322.51378
322.45815
322.35061
322.30553
322.21444
322.18107
322.1069
322.08514
322.02677
322.0151
321.97006
321.966
321.93106
321.93176
321.90364
321.90654
321.88244
321.88568
321.86363
321.86622
321.8451
321.84685
321.82622
321.82739
321.80722
321.80822
321.7886
321.78976
321.77075
321.7722
321.75381
321.7555
321.73771
321.73941
321.72234
321.72361
321.7079
323.74807
323.88965
323.78192
323.7262
323.65655
323.53276
323.44963
323.31617
323.23896
323.10441
323.03776
322.91076
322.85036
322.7338
322.68014
322.57615
322.53114
322.44178
322.40714
322.33349
322.30977
322.25137
322.23769
322.19262
322.18692
322.15229
322.15194
322.12454
322.12695
322.1039
322.10704
322.08616
322.08885
322.06888
322.07075
322.05117
322.05241
322.0332
322.03422
322.01554
322.01669
321.99867
322.0001
321.98282
321.98447
321.96795
321.96955
321.95391
321.95504
321.94081
323.78158
323.89276
323.82258
323.78026
323.73719
323.63661
323.573
323.45721
323.39288
323.27173
323.21316
323.09609
323.04084
322.93146
322.88062
322.78143
322.73726
322.65069
322.61537
322.54305
322.51773
322.45982
322.44425
322.39943
322.39204
322.35782
322.35627
322.32963
322.33138
322.30938
322.31229
322.29262
322.29529
322.27651
322.27839
322.2599
322.26109
322.24287
322.24378
322.22605
322.22705
322.21003
322.2113
322.19512
322.19659
322.18131
322.18272
322.16845
322.1694
322.15652
323.81234
323.89941
323.85458
323.82156
323.79872
323.71823
323.67206
323.57333
323.52156
323.41429
323.36413
323.25787
323.20835
323.10717
323.05986
322.96653
322.92393
322.84112
322.80575
322.73552
322.70905
322.65216
322.63492
322.59064
322.58161
322.54792
322.54509
322.51922
322.5202
322.49925
322.50181
322.48335
322.4859
322.46834
322.47015
322.45277
322.45383
322.43662
322.4373
322.42053
322.42125
322.40522
322.40619
322.39109
322.39227
322.3782
322.37933
322.36636
322.3671
322.35546
323.84055
323.9091
323.88084
323.85403
323.84571
323.78192
323.75064
323.66776
323.62771
323.53424
323.49244
323.39743
323.35398
323.26171
323.21848
323.13183
323.09145
323.01324
322.97844
322.91103
322.88389
322.82856
322.80995
322.76653
322.75596
322.72293
322.71882
322.69374
322.69386
322.67395
322.67606
322.65881
322.66116
322.64483
322.64649
322.63026
322.63111
322.61491
322.61528
322.59945
322.5998
322.58473
322.5853
322.57124
322.57205
322.5591
322.55992
322.54813
322.54866
322.53814
323.86644
323.92101
323.90331
323.88054
323.88197
323.83161
323.81245
323.7438
323.71422
323.63399
323.60019
323.51648
323.47918
323.39621
323.35743
323.27805
323.24042
323.16748
323.13383
323.06989
323.04258
322.98931
322.96969
322.92744
322.91553
322.88331
322.87795
322.85369
322.85291
322.83401
322.8356
322.81954
322.82163
322.80653
322.808
322.79291
322.79349
322.77831
322.77831
322.76341
322.7633
322.74914
322.74925
322.73615
322.73653
322.72462
322.72509
322.71438
322.7147
322.70517
323.89018
323.93422
323.92321
323.90308
323.91054
323.87064
323.86086
323.8046
323.78402
323.7161
323.68967
323.61694
323.58565
323.51204
323.4779
323.40614
323.37167
323.30449
323.2725
323.21256
323.18559
323.13484
323.11459
323.07384
323.06082
323.02957
323.02304
322.99964
322.99796
322.98005
322.98108
322.96617
322.96796
322.95406
322.95531
322.94135
322.94164
322.92746
322.92704
322.91303
322.91242
322.89912
322.89871
322.8865
322.88641
322.87544
322.87555
322.86578
322.86591
322.85725
323.91195
323.94796
323.94125
323.92295
323.93371
323.90176
323.89886
323.85309
323.83991
323.78313
323.76324
323.70088
323.67526
323.61083
323.58132
323.51728
323.48623
323.42514
323.39522
323.33969
323.31352
323.26569
323.24522
323.20626
323.1924
323.16228
323.15473
323.13223
323.12967
323.11272
323.11317
323.09937
323.10083
323.0881
323.08911
323.07627
323.07625
323.06304
323.06219
323.04903
323.04788
323.03538
323.03441
323.02301
323.02242
323.01229
323.01203
323.0031
323.00302
322.99513
323.93193
323.96169
323.95783
323.94095
323.9531
323.92711
323.92892
323.89183
323.88448
323.8375
323.82321
323.77042
323.74997
323.69428
323.66926
323.61283
323.58532
323.53044
323.50292
323.45208
323.4271
323.38251
323.36221
323.32531
323.31091
323.28208
323.27368
323.25213
323.24876
323.23274
323.23262
323.21987
323.22098
323.2094
323.21015
323.1984
323.19807
323.18581
323.18451
323.17216
323.17047
323.15868
323.15715
323.14646
323.14537
323.13596
323.13533
323.12712
323.12685
323.11962
323.9503
323.97503
323.97315
323.95751
323.96984
323.9483
323.95306
323.923
323.92
323.88147
323.8718
323.82761
323.81173
323.76419
323.74337
323.69425
323.67027
323.62157
323.59665
323.55064
323.52719
323.48607
323.46629
323.43169
323.41703
323.38965
323.38059
323.36005
323.35595
323.34084
323.34017
323.32842
323.3292
323.3187
323.31921
323.3085
323.30787
323.29652
323.29479
323.28319
323.28095
323.26982
323.26772
323.25764
323.25605
323.24727
323.24626
323.23867
323.23821
323.23154
323.9672
323.98778
323.98734
323.97289
323.98464
323.96646
323.97281
323.94837
323.94844
323.91702
323.91102
323.8744
323.86244
323.8223
323.80532
323.76307
323.74249
323.69979
323.67755
323.6364
323.61473
323.57722
323.55827
323.52613
323.51152
323.48572
323.4762
323.45672
323.45201
323.4378
323.43662
323.42582
323.42626
323.41678
323.41706
323.40735
323.40644
323.39595
323.39381
323.38291
323.38015
323.36959
323.36693
323.35738
323.35529
323.34703
323.34567
323.33859
323.33795
323.33174
323.98277
323.99985
324.00045
323.98721
323.99798
323.98238
323.98935
323.96933
323.9714
323.94587
323.94265
323.91256
323.90385
323.87032
323.85672
323.82079
323.80341
323.76638
323.74684
323.71044
323.69071
323.65687
323.639
323.60946
323.59515
323.57105
323.56128
323.54291
323.53771
323.52438
323.52274
323.51283
323.51297
323.50445
323.50451
323.49574
323.49458
323.4849
323.48238
323.47212
323.46886
323.45881
323.45561
323.4465
323.44394
323.4361
323.43439
323.42773
323.42691
323.42108
323.99713
324.0112
324.01255
324.00051
324.01013
323.99658
324.0035
323.98696
323.99017
323.96944
323.96822
323.94366
323.93756
323.90981
323.89913
323.86888
323.85443
323.82267
323.80573
323.77389
323.75618
323.72598
323.70939
323.68249
323.66872
323.6464
323.63658
323.61938
323.61381
323.60136
323.59931
323.59025
323.5901
323.58248
323.58235
323.57447
323.57308
323.56416
323.56129
323.55161
323.54788
323.53826
323.53456
323.52581
323.52279
323.51529
323.51325
323.50693
323.50593
323.50041
324.0104
324.02184
324.02369
324.01284
324.02126
324.00939
324.01584
324.00203
324.00575
323.98888
323.98901
323.96905
323.96496
323.94218
323.93395
323.90874
323.89688
323.86994
323.85544
323.82789
323.81219
323.78552
323.77033
323.7461
323.73305
323.71256
323.70287
323.68688
323.68107
323.66949
323.66711
323.65885
323.65844
323.65166
323.65135
323.64429
323.6427
323.63448
323.63131
323.62215
323.61799
323.60875
323.60457
323.5961
323.59265
323.58541
323.58306
323.577
323.57584
323.57056
324.02267
324.0318
324.03393
324.02422
324.03146
324.02103
324.02677
324.01513
324.01889
324.00511
324.00605
323.98986
323.98728
323.9687
323.96246
323.94163
323.93203
323.90938
323.89713
323.87353
323.8598
323.83649
323.82277
323.80115
323.78897
323.77033
323.76093
323.74616
323.74025
323.72952
323.72689
323.71937
323.71875
323.71273
323.71228
323.70596
323.70421
323.69663
323.69319
323.68449
323.67995
323.67102
323.6664
323.65816
323.6543
323.64726
323.64461
323.63874
323.63742
323.63233
324.034
324.04109
324.04334
324.03468
324.04081
324.03161
324.03654
324.02663
324.03015
324.01881
324.02017
324.00704
324.00552
323.99044
323.98578
323.96869
323.961
323.94214
323.93191
323.91188
323.90001
323.87983
323.8676
323.8485
323.83728
323.82048
323.8115
323.79797
323.79206
323.78218
323.77937
323.77255
323.77175
323.76643
323.76585
323.76022
323.75833
323.75133
323.74764
323.73936
323.73447
323.7258
323.72077
323.71271
323.70847
323.70157
323.69864
323.69292
323.69145
323.68649
324.04448
324.04973
324.05195
324.04425
324.04934
324.04122
324.04533
324.03682
324.03992
324.03052
324.032
324.02133
324.02052
324.0083
324.00486
323.99093
323.98483
323.96924
323.96077
323.94393
323.93378
323.91647
323.90569
323.88898
323.87877
323.86377
323.85531
323.843
323.83721
323.82816
323.82524
323.81908
323.81814
323.81345
323.81276
323.80774
323.80574
323.79925
323.79537
323.78745
323.78225
323.77379
323.7684
323.76045
323.75587
323.74907
323.74588
323.74025
323.73865
323.73378
324.05414
324.05774
324.0598
324.05295
324.05708
324.04991
324.05324
324.04588
324.04848
324.04061
324.04202
324.0333
324.03292
324.02304
324.02051
324.0092
324.00439
323.9916
323.98464
323.97059
323.96199
323.94728
323.93787
323.92338
323.91421
323.90092
323.89307
323.88196
323.87637
323.86812
323.86516
323.85962
323.85857
323.85445
323.85368
323.8492
323.8471
323.84106
323.837
323.82939
323.82392
323.81564
323.80991
323.80206
323.79716
323.79042
323.78699
323.78143
323.7797
323.7749
324.06303
324.06511
324.06691
324.06079
324.06406
324.05773
324.06033
324.05394
324.05601
324.04937
324.05058
324.04342
324.04327
324.03526
324.03339
324.02423
324.02044
324.01
324.00433
323.99269
323.98546
323.97305
323.96492
323.95246
323.94431
323.93264
323.92543
323.91548
323.91015
323.90269
323.89975
323.89478
323.89366
323.89004
323.8892
323.88519
323.88301
323.87736
323.87315
323.8658
323.86008
323.85194
323.84592
323.83813
323.83296
323.82625
323.82261
323.81708
323.81524
323.81048
324.07115
324.07183
324.0733
324.0678
324.0703
324.06469
324.06666
324.06108
324.06266
324.05701
324.05796
324.05203
324.05197
324.04545
324.04403
324.03662
324.03364
324.02514
324.02053
324.01094
324.0049
323.99451
323.98755
323.97691
323.96974
323.95957
323.95302
323.94418
323.93917
323.93246
323.92958
323.92514
323.92398
323.92081
323.91991
323.9163
323.91404
323.90872
323.90437
323.89724
323.89131
323.88328
323.877
323.86925
323.86383
323.85714
323.85332
323.84781
323.84587
323.84113
324.07846
324.07786
324.07895
324.07398
324.07581
324.07084
324.07225
324.06738
324.0685
324.06366
324.06434
324.05939
324.05932
324.05399
324.05288
324.04687
324.04449
324.0376
324.03385
324.02599
324.02096
324.01231
324.00638
323.99737
323.99111
323.98232
323.97642
323.96861
323.96396
323.95795
323.95518
323.95123
323.95006
323.94727
323.94632
323.94305
323.94071
323.93566
323.93118
323.92423
323.91811
323.91017
323.90367
323.89594
323.89031
323.88363
323.87964
323.87415
323.87213
323.8674
324.08489
324.08314
324.08384
324.07934
324.08059
324.07619
324.07715
324.07288
324.07362
324.06945
324.06986
324.06569
324.06557
324.06117
324.06025
324.05537
324.05345
324.04785
324.04479
324.03836
324.03419
324.02701
324.022
324.0144
324.00898
324.00142
323.99616
323.98931
323.98502
323.97968
323.97705
323.97354
323.97237
323.96991
323.96891
323.96591
323.96349
323.95866
323.95406
323.94724
323.94096
323.93308
323.92639
323.91869
323.91287
323.90621
323.90208
323.89661
323.89451
323.8898
324.09029
324.08761
324.08798
324.08389
324.08468
324.08078
324.08138
324.07763
324.07806
324.07445
324.07463
324.07109
324.07088
324.06723
324.06643
324.06243
324.06085
324.0563
324.05378
324.04853
324.04506
324.03913
324.03489
324.02852
324.02384
324.01738
324.01272
324.00674
324.00283
323.99809
323.99562
323.99251
323.99136
323.98918
323.98812
323.98533
323.98282
323.97814
323.97343
323.96671
323.96028
323.95245
323.9456
323.93793
323.93196
323.92531
323.92108
323.91563
323.91347
323.90879
324.0945
324.09123
324.09134
324.08765
324.0881
324.08465
324.08497
324.08169
324.08186
324.07873
324.07872
324.0757
324.07541
324.07234
324.07161
324.06831
324.06698
324.06325
324.06117
324.05686
324.05397
324.04906
324.04549
324.04015
324.03614
324.03063
324.02653
324.02132
324.01778
324.0136
324.01129
324.00855
324.00741
324.00545
324.00433
324.00169
323.99908
323.99451
323.98967
323.98302
323.97647
323.96867
323.9617
323.95405
323.94798
323.94135
323.93704
323.93163
323.92943
323.92478
324.09744
324.09399
324.09395
324.09068
324.09088
324.08784
324.08796
324.08509
324.08509
324.08236
324.08221
324.0796
324.07924
324.07665
324.07595
324.07321
324.07205
324.06898
324.06722
324.06367
324.06124
324.05718
324.05415
324.04969
324.04624
324.04156
324.03795
324.03344
324.03024
324.02656
324.02443
324.02199
324.02087
324.01909
324.01789
324.01534
324.01262
324.0081
324.00314
323.99653
323.98986
323.9821
323.97503
323.96741
323.96127
323.95469
323.95032
323.94496
323.94274
323.93814
324.09917
324.09593
324.09587
324.09301
324.09306
324.09041
324.0904
324.0879
324.08777
324.0854
324.08514
324.08289
324.08247
324.08025
324.07958
324.07726
324.07623
324.07367
324.07217
324.06922
324.06716
324.06377
324.0612
324.05745
324.05448
324.05049
324.04733
324.04341
324.04054
324.03731
324.03533
324.03316
324.03206
324.03039
324.02911
324.02659
324.02374
324.01922
324.01414
324.00754
324.00077
323.99304
323.9859
323.97834
323.97216
323.96564
323.96126
323.95596
323.95373
323.94921
324.0999
324.09717
324.09717
324.09472
324.09471
324.09241
324.09233
324.09016
324.08996
324.08789
324.08757
324.08561
324.08515
324.08323
324.08258
324.0806
324.07967
324.0775
324.07619
324.0737
324.07193
324.06908
324.06687
324.0637
324.06114
324.05773
324.05495
324.05154
324.04896
324.04611
324.04428
324.04233
324.04122
324.03963
324.03824
324.03571
324.0327
324.02815
324.02294
324.01633
324.00947
324.00179
323.99461
323.98712
323.98093
323.9745
323.97012
323.96492
323.9627
323.95827
324.09995
324.09785
324.09796
324.09591
324.09589
324.09392
324.09381
324.09192
324.0917
324.0899
324.08954
324.08783
324.08736
324.08568
324.08504
324.08332
324.08246
324.08059
324.07941
324.07728
324.07573
324.07329
324.07137
324.06866
324.06643
324.06349
324.06103
324.05805
324.05574
324.0532
324.05151
324.04973
324.0486
324.04703
324.04551
324.04292
324.03974
324.03512
324.02977
324.02314
324.01622
324.00857
324.00139
323.99399
323.98783
323.98152
323.97718
323.9721
323.96989
323.96558
324.09961
324.09812
324.09835
324.09665
324.09667
324.09499
324.09489
324.09326
324.09304
324.09146
324.09111
324.08959
324.08913
324.08763
324.08702
324.08548
324.08468
324.08302
324.08195
324.08008
324.07869
324.07656
324.07486
324.07251
324.07054
324.06797
324.06579
324.06316
324.06107
324.0588
324.05722
324.05555
324.05439
324.0528
324.05112
324.04842
324.04506
324.04033
324.03485
324.02819
324.02122
324.01362
324.00647
323.99918
323.99309
323.98692
323.98264
323.9777
323.97554
323.97137
324.09912
324.09812
324.09844
324.09704
324.09712
324.09569
324.09563
324.09421
324.09402
324.09263
324.0923
324.09095
324.0905
324.08915
324.08855
324.08715
324.08638
324.08488
324.08388
324.08219
324.08092
324.07901
324.07748
324.07539
324.07363
324.07135
324.06939
324.06704
324.06513
324.06306
324.06156
324.05997
324.05875
324.05708
324.05523
324.05238
324.04883
324.04397
324.03835
324.03166
324.02466
324.01713
324.01004
324.00289
323.9969
323.99089
323.98671
323.98194
323.97984
323.97583
324.09857
324.09794
324.09832
324.09716
324.09731
324.09608
324.09608
324.09484
324.09469
324.09345
324.09317
324.09193
324.09151
324.09026
324.08968
324.08837
324.08762
324.08621
324.08526
324.08368
324.08248
324.08073
324.07931
324.07741
324.0758
324.07373
324.07194
324.06981
324.06805
324.06613
324.06469
324.06312
324.06181
324.06003
324.05798
324.05495
324.05118
324.04619
324.04044
324.03371
324.02671
324.01927
324.01227
324.00529
323.99943
323.99362
323.98956
323.98499
323.98294
323.97912
324.09801
324.09765
324.09805
324.09706
324.09729
324.09621
324.09628
324.09518
324.09509
324.09397
324.09373
324.09258
324.09219
324.09099
324.09043
324.08915
324.08842
324.08704
324.08611
324.08459
324.08344
324.08177
324.08043
324.07864
324.07714
324.07522
324.07357
324.07158
324.06993
324.06812
324.0667
324.06511
324.06368
324.06175
324.05948
324.05624
324.05226
324.04711
324.04124
324.03449
324.02751
324.02019
324.01331
324.00653
324.00083
323.99525
323.99133
323.98697
323.98501
323.98138
324.09744
324.09729
324.09767
324.0968
324.0971
324.09614
324.09628
324.09528
324.09526
324.09421
324.09402
324.09292
324.09254
324.09136
324.09081
324.08953
324.08879
324.0874
324.08647
324.08495
324.08382
324.08218
324.08088
324.07915
324.07772
324.07589
324.07433
324.07244
324.07087
324.0691
324.06767
324.06601
324.06445
324.06233
324.05983
324.05636
324.05215
324.04685
324.04088
324.03412
324.0272
324.02001
324.0133
324.00674
324.00124
323.9959
323.99215
323.98802
323.98615
323.98274
324.09684
324.09688
324.09722
324.09642
324.09678
324.0959
324.09611
324.09517
324.09522
324.09421
324.09406
324.09295
324.0926
324.09139
324.09082
324.0895
324.08873
324.08729
324.08634
324.08477
324.08363
324.08197
324.08069
324.07897
324.07758
324.07578
324.07428
324.07244
324.07091
324.06914
324.06767
324.06591
324.06418
324.06183
324.05909
324.05537
324.05095
324.0455
324.03946
324.03271
324.02587
324.01885
324.01234
324.00603
324.00076
323.99569
323.99212
323.98824
323.98647
323.9833
324.0962
324.09641
324.09672
324.09594
324.09636
324.09552
324.09579
324.09489
324.09499
324.09397
324.09385
324.0927
324.09234
324.09106
324.09047
324.08905
324.08824
324.0867
324.0857
324.08405
324.08288
324.08115
324.07987
324.07811
324.07674
324.07493
324.07346
324.07162
324.0701
324.06829
324.06675
324.06483
324.06292
324.06033
324.05733
324.05336
324.04874
324.04315
324.03706
324.03036
324.02364
324.01681
324.01053
324.0045
323.99948
323.9947
323.99133
323.98772
323.98606
323.98312
324.09552
324.0959
324.09616
324.09538
324.09586
324.09503
324.09536
324.09444
324.09458
324.09351
324.0934
324.09215
324.09177
324.09036
324.08972
324.08816
324.08729
324.08561
324.08454
324.08277
324.08155
324.07972
324.07841
324.07658
324.0752
324.07335
324.07187
324.07
324.06846
324.06657
324.06492
324.06283
324.0607
324.05785
324.0546
324.05038
324.04558
324.03988
324.03378
324.02714
324.02058
324.01398
324.00796
324.00223
323.99748
323.99301
323.98986
323.98651
323.98497
323.98228
324.0948
324.09535
324.09555
324.09475
324.09528
324.09443
324.09481
324.09383
324.09399
324.09281
324.09269
324.09129
324.09086
324.08927
324.08855
324.08681
324.08585
324.08399
324.08284
324.0809
324.07962
324.07766
324.0763
324.07437
324.07296
324.07103
324.06954
324.06758
324.066
324.06399
324.06222
324.05991
324.05756
324.05443
324.05094
324.04648
324.04153
324.03574
324.02966
324.02314
324.01677
324.01042
324.00469
323.99929
323.99484
323.99068
323.98775
323.98468
323.98326
323.98081
324.09402
324.09476
324.09489
324.09405
324.09464
324.09374
324.09414
324.09307
324.09321
324.09186
324.09169
324.09008
324.08956
324.08774
324.08692
324.08494
324.08387
324.08179
324.08054
324.07842
324.07705
324.07494
324.07352
324.07146
324.07001
324.06797
324.06644
324.06438
324.06273
324.06056
324.05864
324.0561
324.05352
324.05011
324.04638
324.04171
324.03665
324.03081
324.02479
324.01841
324.01227
324.00621
324.0008
323.99574
323.9916
323.98776
323.98507
323.98227
323.98098
323.97877
324.09317
324.09412
324.09417
324.09329
324.09393
324.09294
324.09335
324.09212
324.09221
324.09063
324.09035
324.08848
324.08783
324.08573
324.08477
324.08251
324.08131
324.07898
324.07761
324.07527
324.07382
324.07153
324.07004
324.06783
324.06632
324.06416
324.06257
324.06037
324.05863
324.05628
324.05419
324.0514
324.04859
324.04491
324.04097
324.03612
324.03098
324.02512
324.01922
324.01302
324.00715
324.0014
323.99634
323.99162
323.9878
323.98428
323.98183
323.97931
323.97814
323.97617
324.09226
324.09343
324.0934
324.09247
324.09315
324.09203
324.09241
324.09095
324.09093
324.08905
324.08863
324.08641
324.0856
324.08316
324.08203
324.07946
324.0781
324.07549
324.074
324.07142
324.06987
324.06739
324.06583
324.06345
324.06188
324.05956
324.0579
324.05555
324.05369
324.05114
324.04887
324.04582
324.04279
324.03885
324.03474
324.02973
324.02456
324.01874
324.013
324.00701
324.00145
323.99603
323.99133
323.98697
323.98348
323.98029
323.97807
323.97582
323.97476
323.97302
324.09127
324.09271
324.09257
324.09158
324.09227
324.09099
324.09126
324.08951
324.08931
324.08705
324.08643
324.08381
324.08279
324.07996
324.07863
324.07571
324.07418
324.07127
324.06964
324.06681
324.06516
324.06247
324.06084
324.05829
324.05664
324.05416
324.05242
324.04988
324.04791
324.04513
324.04269
324.03937
324.03614
324.03197
324.02772
324.0226
324.01745
324.01171
324.00617
324.00043
323.99521
323.99014
323.98581
323.98182
323.97866
323.97578
323.9738
323.9718
323.97086
323.96934
324.0902
324.09194
324.09166
324.09062
324.09129
324.08976
324.08986
324.08772
324.08727
324.08455
324.08366
324.08058
324.0793
324.07604
324.07449
324.07119
324.06948
324.06625
324.06449
324.0614
324.05965
324.05675
324.05504
324.05231
324.05059
324.04793
324.0461
324.04337
324.04126
324.03825
324.03563
324.03207
324.02866
324.02429
324.01994
324.01477
324.00968
324.00407
323.99877
323.99332
323.98846
323.98376
323.97981
323.97618
323.97335
323.97077
323.96903
323.96726
323.96644
323.96512
324.08903
324.09116
324.09069
324.08958
324.09014
324.08829
324.08811
324.08549
324.0847
324.08143
324.08022
324.07661
324.07505
324.07132
324.06953
324.06583
324.06394
324.06038
324.05849
324.05514
324.0533
324.05019
324.04841
324.04549
324.04369
324.04085
324.03892
324.03599
324.03374
324.03051
324.02772
324.02392
324.02036
324.01583
324.01145
324.00626
324.0013
323.99586
323.99085
323.98572
323.98123
323.9769
323.97335
323.97006
323.96756
323.96527
323.96374
323.9622
323.96149
323.96036
324.08776
324.09037
324.08963
324.08842
324.08878
324.08648
324.08589
324.08269
324.08146
324.07757
324.07598
324.0718
324.06992
324.06569
324.06366
324.05955
324.05748
324.05359
324.05158
324.04798
324.04606
324.04274
324.0409
324.03779
324.03593
324.0329
324.03087
324.02773
324.02535
324.0219
324.01896
324.01496
324.01129
324.00665
324.00228
323.99713
323.99235
323.98712
323.98243
323.97763
323.97355
323.96959