/*--------------------------------*- C++ -*----------------------------------*\
| =========                 |                                                 |
| \\      /  F ield         | OpenFOAM: The Open Source CFD Toolbox           |
|  \\    /   O peration     | Version:  2312                                  |
|   \\  /    A nd           | Website:  www.openfoam.com                      |
|    \\/     M anipulation  |                                                 |
\*---------------------------------------------------------------------------*/
FoamFile
{
    version     2.0;
    format      ascii;
    arch        "LSB;label=32;scalar=64";
    class       volScalarField;
    location    "3";
    object      p;
}
// * * * * * * * * * * * * * * * * * * * * * * * * * * * * * * * * * * * * * //

dimensions      [0 2 -2 0 0 0 0];

internalField   nonuniform List<scalar> 
4000
(
32.462396
30.95591
30.34252
29.319542
28.8886
27.993788
27.579418
26.730884
26.298983
25.477294
25.024539
24.224148
23.752154
22.970166
22.481103
21.715253
21.211093
20.459469
19.941963
19.202893
18.673602
17.945605
17.405924
16.687675
16.138858
15.42917
14.872339
14.170146
13.606313
12.910657
12.340728
11.650748
11.075544
10.39046
9.8107209
9.1298265
8.5462279
7.8688779
7.2820371
6.6076393
6.0181257
5.3461316
4.7544747
4.0843717
3.4910691
2.8223729
2.2278972
1.5601428
0.96494655
0.29767984
32.449523
30.953874
30.343012
29.319536
28.888589
27.993802
27.579413
26.730893
26.298975
25.477301
25.024532
24.224155
23.752148
22.970172
22.481098
21.715258
21.211089
20.459473
19.941958
19.202897
18.673598
17.945608
17.405921
16.687679
16.138855
15.429173
14.872336
14.170149
13.60631
12.91066
12.340726
11.650751
11.075541
10.390462
9.8107189
9.1298284
8.546226
7.8688797
7.2820354
6.607641
6.0181241
5.3461332
4.7544732
4.0843733
3.4910677
2.8223743
2.2278958
1.5601442
0.96494505
0.2976824
32.434778
30.952903
30.343853
29.319472
28.888594
27.993809
27.579422
26.730893
26.298978
25.4773
25.024533
24.224154
23.75215
22.970171
22.481099
21.715257
21.211089
20.459473
19.941959
19.202897
18.673598
17.945608
17.405921
16.687678
16.138855
15.429172
14.872337
14.170149
13.60631
12.910659
12.340726
11.65075
11.075542
10.390462
9.8107193
9.129828
8.5462264
7.8688793
7.2820357
6.6076407
6.0181244
5.3461329
4.7544735
4.084373
3.4910679
2.8223741
2.227896
1.5601439
0.96494516
0.29768326
32.414185
30.951139
30.344735
29.319383
28.888601
27.993814
27.579433
26.730888
26.298983
25.477295
25.024537
24.22415
23.752153
22.970167
22.481102
21.715254
21.211092
20.45947
19.941962
19.202894
18.673601
17.945606
17.405923
16.687676
16.138857
15.42917
14.872339
14.170147
13.606312
12.910658
12.340728
11.650749
11.075543
10.39046
9.8107205
9.1298269
8.5462275
7.8688783
7.2820368
6.6076397
6.0181254
5.346132
4.7544744
4.0843721
3.4910688
2.8223732
2.2278969
1.560143
0.96494591
0.29768341
32.394737
30.949588
30.34556
29.319262
28.888604
27.99382
27.579442
26.730884
26.298987
25.477291
25.024541
24.224147
23.752156
22.970164
22.481105
21.715252
21.211095
20.459467
19.941964
19.202892
18.673603
17.945604
17.405925
16.687674
16.138859
15.429169
14.87234
14.170145
13.606313
12.910657
12.340729
11.650748
11.075544
10.390459
9.8107215
9.1298259
8.5462285
7.8688773
7.2820377
6.6076388
6.0181263
5.3461311
4.7544752
4.0843712
3.4910696
2.8223724
2.2278976
1.5601422
0.96494663
0.29768347
32.378457
30.947395
30.346219
29.319104
28.88861
27.993828
27.579449
26.73088
26.29899
25.477288
25.024544
24.224144
23.752159
22.970162
22.481107
21.71525
21.211097
20.459466
19.941966
19.20289
18.673604
17.945602
17.405927
16.687673
16.13886
15.429167
14.872341
14.170144
13.606314
12.910656
12.34073
11.650747
11.075545
10.390458
9.8107223
9.1298251
8.5462292
7.8688766
7.2820384
6.6076381
6.0181269
5.3461305
4.7544759
4.0843706
3.4910702
2.8223718
2.2278982
1.5601415
0.96494723
0.29768355
32.356619
30.945643
30.346744
29.318951
28.888629
27.993837
27.579455
26.730877
26.298993
25.477285
25.024546
24.224142
23.752161
22.97016
22.481109
21.715248
21.211098
20.459464
19.941967
19.202889
18.673606
17.945601
17.405928
16.687672
16.138861
15.429166
14.872342
14.170143
13.606315
12.910655
12.340731
11.650746
11.075546
10.390458
9.810723
9.1298244
8.5462298
7.868876
7.282039
6.6076375
6.0181275
5.3461299
4.7544764
4.0843701
3.4910708
2.8223713
2.2278987
1.560141
0.96494775
0.29768364
32.341208
30.944395
30.346741
29.319009
28.888694
27.993853
27.579462
26.730874
26.298995
25.477283
25.024548
24.22414
23.752163
22.970158
22.48111
21.715246
21.2111
20.459463
19.941968
19.202888
18.673607
17.9456
17.405929
16.687671
16.138862
15.429166
14.872343
14.170143
13.606316
12.910654
12.340732
11.650745
11.075547
10.390457
9.8107236
9.1298239
8.5462304
7.8688755
7.2820395
6.607637
6.018128
5.3461294
4.7544769
4.0843696
3.4910712
2.8223708
2.2278992
1.5601405
0.96494824
0.2976837
32.322438
30.943233
30.34605
29.319382
28.888798
27.993874
27.579468
26.730871
26.298996
25.477281
25.024549
24.224138
23.752164
22.970157
22.481112
21.715245
21.211101
20.459462
19.94197
19.202887
18.673608
17.945599
17.40593
16.68767
16.138863
15.429165
14.872344
14.170142
13.606317
12.910653
12.340732
11.650745
11.075547
10.390457
9.8107241
9.1298234
8.5462309
7.868875
7.2820399
6.6076366
6.0181284
5.346129
4.7544773
4.0843692
3.4910716
2.8223704
2.2278996
1.56014
0.9649487
0.29768374
32.309064
30.941693
30.34552
29.319684
28.888855
27.993883
27.579471
26.730867
26.298997
25.477279
25.024551
24.224137
23.752165
22.970155
22.481113
21.715244
21.211102
20.459461
19.941971
19.202886
18.673609
17.945598
17.40593
16.687669
16.138863
15.429164
14.872344
14.170141
13.606317
12.910653
12.340733
11.650744
11.075548
10.390456
9.8107246
9.1298229
8.5462313
7.8688746
7.2820403
6.6076362
6.0181288
5.3461287
4.7544776
4.0843689
3.491072
2.8223701
2.2278999
1.5601396
0.96494913
0.29768376
32.292886
30.938939
30.34591
29.319464
28.888804
27.993865
27.579463
26.730861
26.298997
25.477276
25.024552
24.224135
23.752167
22.970154
22.481114
21.715243
21.211103
20.45946
19.941971
19.202885
18.673609
17.945597
17.405931
16.687668
16.138864
15.429164
14.872345
14.170141
13.606318
12.910652
12.340733
11.650744
11.075548
10.390456
9.810725
9.1298225
8.5462317
7.8688742
7.2820407
6.6076359
6.0181291
5.3461283
4.754478
4.0843686
3.4910723
2.8223698
2.2279002
1.5601393
0.96494954
0.29768376
32.281866
30.936855
30.346342
29.318814
28.888677
27.993822
27.579448
26.730852
26.298996
25.477274
25.024552
24.224134
23.752168
22.970153
22.481115
21.715242
21.211104
20.459459
19.941972
19.202884
18.67361
17.945597
17.405932
16.687668
16.138865
15.429163
14.872346
14.17014
13.606318
12.910652
12.340734
11.650743
11.075548
10.390455
9.8107253
9.1298222
8.546232
7.8688739
7.282041
6.6076355
6.0181294
5.346128
4.7544783
4.0843683
3.4910726
2.8223695
2.2279005
1.5601389
0.96494992
0.29768376
32.269464
30.934195
30.34607
29.318208
28.888559
27.993774
27.57943
26.730842
26.298994
25.477271
25.024553
24.224133
23.752169
22.970152
22.481116
21.715241
21.211105
20.459458
19.941973
19.202884
18.673611
17.945596
17.405932
16.687667
16.138865
15.429162
14.872346
14.17014
13.606319
12.910651
12.340734
11.650743
11.075549
10.390455
9.8107257
9.1298219
8.5462323
7.8688736
7.2820413
6.6076353
6.0181297
5.3461278
4.7544785
4.084368
3.4910728
2.8223692
2.2279007
1.5601387
0.96495029
0.29768374
32.25895
30.932034
30.345145
29.317946
28.888512
27.993743
27.579416
26.730834
26.298992
25.477269
25.024554
24.224131
23.752169
22.970151
22.481117
21.71524
21.211106
20.459457
19.941974
19.202883
18.673611
17.945595
17.405933
16.687667
16.138866
15.429162
14.872346
14.170139
13.606319
12.910651
12.340734
11.650743
11.075549
10.390455
9.810726
9.1298216
8.5462326
7.8688733
7.2820416
6.607635
6.0181299
5.3461275
4.7544788
4.0843678
3.4910731
2.822369
2.2279009
1.5601384
0.96495063
0.29768372
32.251154
30.929138
30.343596
29.317964
28.888509
27.993725
27.579407
26.730827
26.298991
25.477267
25.024554
24.22413
23.75217
22.97015
22.481117
21.71524
21.211106
20.459457
19.941974
19.202882
18.673612
17.945595
17.405933
16.687666
16.138866
15.429162
14.872347
14.170139
13.606319
12.910651
12.340735
11.650742
11.075549
10.390454
9.8107262
9.1298213
8.5462328
7.8688731
7.2820418
6.6076348
6.0181301
5.3461273
4.754479
4.0843676
3.4910733
2.8223688
2.2279011
1.5601382
0.96495096
0.29768369
32.239613
30.926356
30.341827
29.31799
28.888464
27.993696
27.579392
26.730818
26.298989
25.477264
25.024554
24.224129
23.752171
22.97015
22.481118
21.715239
21.211107
20.459456
19.941975
19.202882
18.673612
17.945594
17.405934
16.687666
16.138867
15.429161
14.872347
14.170139
13.60632
12.91065
12.340735
11.650742
11.07555
10.390454
9.8107265
9.1298211
8.5462331
7.8688728
7.282042
6.6076346
6.0181304
5.3461271
4.7544792
4.0843674
3.4910735
2.8223686
2.2279013
1.560138
0.96495128
0.29768365
32.231798
30.92321
30.340337
29.317761
28.888311
27.993641
27.579366
26.730805
26.298984
25.477261
25.024554
24.224128
23.752171
22.970149
22.481119
21.715238
21.211107
20.459456
19.941975
19.202881
18.673613
17.945594
17.405934
16.687666
16.138867
15.429161
14.872348
14.170138
13.60632
12.91065
12.340735
11.650742
11.07555
10.390454
9.8107267
9.1298209
8.5462333
7.8688726
7.2820422
6.6076344
6.0181305
5.3461269
4.7544793
4.0843672
3.4910736
2.8223684
2.2279015
1.5601378
0.96495157
0.29768361
32.222826
30.920378
30.33937
29.317246
28.888063
27.993566
27.579331
26.730789
26.298978
25.477258
25.024553
24.224127
23.752172
22.970148
22.481119
21.715238
21.211108
20.459455
19.941976
19.202881
18.673613
17.945594
17.405935
16.687665
16.138867
15.429161
14.872348
14.170138
13.60632
12.91065
12.340735
11.650742
11.07555
10.390454
9.8107269
9.1298207
8.5462335
7.8688725
7.2820424
6.6076342
6.0181307
5.3461267
4.7544795
4.084367
3.4910738
2.8223682
2.2279016
1.5601376
0.96495186
0.29768356
32.21715
30.917476
30.338667
29.316657
28.887808
27.993495
27.579299
26.730775
26.298973
25.477255
25.024553
24.224125
23.752172
22.970147
22.48112
21.715237
21.211108
20.459455
19.941976
19.202881
18.673614
17.945593
17.405935
16.687665
16.138868
15.42916
14.872348
14.170138
13.606321
12.91065
12.340736
11.650741
11.07555
10.390453
9.8107271
9.1298205
8.5462337
7.8688723
7.2820426
6.607634
6.0181309
5.3461266
4.7544797
4.0843669
3.4910739
2.8223681
2.2279018
1.5601374
0.96495212
0.29768352
32.210144
30.914986
30.337899
29.316185
28.887616
27.993443
27.579274
26.730767
26.29897
25.477252
25.024552
24.224124
23.752172
22.970147
22.48112
21.715237
21.211109
20.459454
19.941977
19.20288
18.673614
17.945593
17.405935
16.687665
16.138868
15.42916
14.872348
14.170138
13.606321
12.910649
12.340736
11.650741
11.075551
10.390453
9.8107273
9.1298203
8.5462338
7.8688721
7.2820427
6.6076339
6.018131
5.3461265
4.7544798
4.0843667
3.4910741
2.822368
2.2279019
1.5601373
0.96495238
0.29768347
32.205601
30.912616
30.336993
29.315827
28.887479
27.993405
27.579256
26.730764
26.298968
25.47725
25.024552
24.224124
23.752172
22.970146
22.48112
21.715236
21.211109
20.459454
19.941977
19.20288
18.673614
17.945593
17.405935
16.687664
16.138868
15.42916
14.872349
14.170137
13.606321
12.910649
12.340736
11.650741
11.075551
10.390453
9.8107275
9.1298201
8.546234
7.868872
7.2820429
6.6076337
6.0181312
5.3461263
4.7544799
4.0843666
3.4910742
2.8223678
2.227902
1.5601372
0.96495262
0.29768341
32.20003
30.910582
30.336064
29.315519
28.887371
27.993376
27.579241
26.730764
26.298967
25.477249
25.024552
24.224123
23.752173
22.970146
22.481121
21.715236
21.211109
20.459453
19.941977
19.202879
18.673615
17.945592
17.405936
16.687664
16.138868
15.42916
14.872349
14.170137
13.606321
12.910649
12.340736
11.650741
11.075551
10.390453
9.8107276
9.12982
8.5462341
7.8688718
7.282043
6.6076336
6.0181313
5.3461262
4.7544801
4.0843665
3.4910743
2.8223677
2.2279021
1.5601371
0.96495285
0.29768336
32.196398
30.908661
30.335179
29.315231
28.887275
27.99335
27.579226
26.730766
26.298967
25.477248
25.024552
24.224122
23.752173
22.970145
22.481121
21.715235
21.21111
20.459453
19.941977
19.202879
18.673615
17.945592
17.405936
16.687664
16.138869
15.429159
14.872349
14.170137
13.606321
12.910649
12.340736
11.650741
11.075551
10.390453
9.8107277
9.1298199
8.5462342
7.8688717
7.2820431
6.6076335
6.0181314
5.3461261
4.7544802
4.0843664
3.4910744
2.8223676
2.2279022
1.560137
0.96495306
0.29768331
32.191996
30.906969
30.334375
29.314967
28.887189
27.993327
27.57921
26.730769
26.298968
25.477248
25.024553
24.224122
23.752173
22.970145
22.481121
21.715235
21.21111
20.459453
19.941978
19.202879
18.673615
17.945592
17.405936
16.687664
16.138869
15.429159
14.872349
14.170137
13.606322
12.910649
12.340737
11.650741
11.075551
10.390453
9.8107279
9.1298197
8.5462344
7.8688716
7.2820432
6.6076334
6.0181315
5.346126
4.7544803
4.0843663
3.4910745
2.8223675
2.2279023
1.5601369
0.96495326
0.29768326
32.189105
30.905429
30.333653
29.314732
28.887113
27.993308
27.579194
26.730772
26.298969
25.477248
25.024553
24.224121
23.752173
22.970144
22.481122
21.715235
21.21111
20.459452
19.941978
19.202879
18.673615
17.945592
17.405936
16.687663
16.138869
15.429159
14.872349
14.170137
13.606322
12.910649
12.340737
11.65074
11.075551
10.390453
9.810728
9.1298196
8.5462345
7.8688715
7.2820433
6.6076333
6.0181316
5.3461259
4.7544804
4.0843662
3.4910746
2.8223674
2.2279024
1.5601368
0.96495345
0.2976832
32.185652
30.904062
30.333009
29.314527
28.887048
27.993291
27.579178
26.730775
26.29897
25.477248
25.024553
24.224121
23.752174
22.970144
22.481122
21.715234
21.211111
20.459452
19.941978
19.202878
18.673615
17.945591
17.405937
16.687663
16.138869
15.429159
14.872349
14.170137
13.606322
12.910648
12.340737
11.65074
11.075551
10.390452
9.8107281
9.1298195
8.5462346
7.8688714
7.2820434
6.6076332
6.0181317
5.3461258
4.7544804
4.0843661
3.4910747
2.8223673
2.2279025
1.5601368
0.96495363
0.29768315
32.183347
30.902881
30.332448
29.314352
28.886994
27.993279
27.579165
26.730778
26.298971
25.477249
25.024554
24.224121
23.752174
22.970143
22.481122
21.715234
21.211111
20.459452
19.941978
19.202878
18.673616
17.945591
17.405937
16.687663
16.138869
15.429159
14.87235
14.170136
13.606322
12.910648
12.340737
11.65074
11.075552
10.390452
9.8107282
9.1298194
8.5462347
7.8688713
7.2820435
6.6076331
6.0181318
5.3461257
4.7544805
4.084366
3.4910748
2.8223673
2.2279025
1.5601367
0.96495379
0.29768311
32.180668
30.901815
30.331955
29.314205
28.886951
27.993269
27.579153
26.73078
26.298971
25.47725
25.024555
24.22412
23.752174
22.970143
22.481122
21.715234
21.211111
20.459452
19.941979
19.202878
18.673616
17.945591
17.405937
16.687663
16.138869
15.429159
14.87235
14.170136
13.606322
12.910648
12.340737
11.65074
11.075552
10.390452
9.8107283
9.1298193
8.5462347
7.8688712
7.2820436
6.607633
6.0181318
5.3461257
4.7544806
4.084366
3.4910748
2.8223672
2.2279026
1.5601367
0.96495394
0.29768306
32.178812
30.900945
30.331545
29.314085
28.886918
27.993263
27.579144
26.730782
26.298971
25.477252
25.024556
24.22412
23.752174
22.970143
22.481122
21.715233
21.211111
20.459452
19.941979
19.202878
18.673616
17.945591
17.405937
16.687663
16.13887
15.429158
14.87235
14.170136
13.606322
12.910648
12.340737
11.65074
11.075552
10.390452
9.8107284
9.1298193
8.5462348
7.8688712
7.2820437
6.607633
6.0181319
5.3461256
4.7544807
4.0843659
3.4910749
2.8223671
2.2279027
1.5601366
0.96495408
0.29768302
32.176777
30.90013
30.331187
29.313987
28.886893
27.993258
27.579137
26.730783
26.29897
25.477254
25.024556
24.22412
23.752175
22.970143
22.481123
21.715233
21.211111
20.459451
19.941979
19.202878
18.673616
17.945591
17.405937
16.687663
16.13887
15.429158
14.87235
14.170136
13.606322
12.910648
12.340737
11.65074
11.075552
10.390452
9.8107284
9.1298192
8.5462349
7.8688711
7.2820437
6.6076329
6.018132
5.3461255
4.7544807
4.0843659
3.4910749
2.8223671
2.2279027
1.5601366
0.9649542
0.29768298
32.175188
30.89949
30.330904
29.313912
28.886876
27.993256
27.579131
26.730785
26.298969
25.477257
25.024557
24.22412
23.752175
22.970142
22.481123
21.715233
21.211111
20.459451
19.941979
19.202878
18.673616
17.945591
17.405937
16.687663
16.13887
15.429158
14.87235
14.170136
13.606322
12.910648
12.340737
11.65074
11.075552
10.390452
9.8107285
9.1298191
8.5462349
7.868871
7.2820438
6.6076329
6.018132
5.3461255
4.7544808
4.0843658
3.491075
2.822367
2.2279028
1.5601365
0.96495431
0.29768294
32.173693
30.898901
30.330664
29.313857
28.886866
27.993256
27.579128
26.730788
26.298967
25.477259
25.024558
24.22412
23.752175
22.970142
22.481123
21.715233
21.211112
20.459451
19.941979
19.202877
18.673616
17.945591
17.405937
16.687662
16.13887
15.429158
14.87235
14.170136
13.606322
12.910648
12.340737
11.65074
11.075552
10.390452
9.8107286
9.1298191
8.546235
7.868871
7.2820438
6.6076328
6.0181321
5.3461254
4.7544808
4.0843658
3.491075
2.822367
2.2279028
1.5601365
0.9649544
0.29768291
32.172366
30.898447
30.330495
29.313823
28.886863
27.993259
27.579126
26.73079
26.298965
25.477261
25.024559
24.22412
23.752175
22.970142
22.481123
21.715233
21.211112
20.459451
19.941979
19.202877
18.673616
17.94559
17.405938
16.687662
16.13887
15.429158
14.87235
14.170136
13.606323
12.910648
12.340738
11.65074
11.075552
10.390452
9.8107286
9.129819
8.5462351
7.8688709
7.2820439
6.6076328
6.0181321
5.3461254
4.7544808
4.0843657
3.4910751
2.8223669
2.2279028
1.5601365
0.96495448
0.29768288
32.171284
30.898068
30.330363
29.313804
28.886867
27.993263
27.579125
26.730793
26.298962
25.477263
25.02456
24.224121
23.752175
22.970142
22.481123
21.715232
21.211112
20.459451
19.941979
19.202877
18.673617
17.94559
17.405938
16.687662
16.13887
15.429158
14.87235
14.170136
13.606323
12.910648
12.340738
11.65074
11.075552
10.390452
9.8107287
9.129819
8.5462351
7.8688709
7.2820439
6.6076327
6.0181321
5.3461254
4.7544809
4.0843657
3.4910751
2.8223669
2.2279029
1.5601365
0.96495454
0.29768286
32.170296
30.897778
30.330293
29.313803
28.886875
27.993269
27.579125
26.730796
26.298961
25.477265
25.024561
24.224121
23.752176
22.970142
22.481123
21.715232
21.211112
20.459451
19.941979
19.202877
18.673617
17.94559
17.405938
16.687662
16.13887
15.429158
14.87235
14.170136
13.606323
12.910648
12.340738
11.65074
11.075552
10.390452
9.8107287
9.1298189
8.5462351
7.8688709
7.2820439
6.6076327
6.0181322
5.3461253
4.7544809
4.0843657
3.4910751
2.8223669
2.2279029
1.5601365
0.96495458
0.29768285
32.169552
30.897565
30.330244
29.313811
28.886887
27.993276
27.579126
26.730799
26.298959
25.477266
25.024562
24.224121
23.752176
22.970142
22.481123
21.715232
21.211112
20.45945
19.941979
19.202877
18.673617
17.94559
17.405938
16.687662
16.13887
15.429158
14.87235
14.170136
13.606323
12.910648
12.340738
11.65074
11.075552
10.390452
9.8107287
9.1298189
8.5462352
7.8688708
7.282044
6.6076327
6.0181322
5.3461253
4.7544809
4.0843656
3.4910752
2.8223669
2.2279029
1.5601365
0.96495458
0.29768285
32.168937
30.897396
30.330238
29.313828
28.8869
27.993283
27.579128
26.730802
26.298958
25.477267
25.024563
24.224122
23.752176
22.970141
22.481123
21.715232
21.211112
20.45945
19.94198
19.202877
18.673617
17.94559
17.405938
16.687662
16.13887
15.429158
14.87235
14.170136
13.606323
12.910648
12.340738
11.65074
11.075552
10.390452
9.8107288
9.1298189
8.5462352
7.8688708
7.282044
6.6076327
6.0181322
5.3461253
4.7544809
4.0843656
3.4910752
2.8223669
2.2279029
1.5601365
0.96495456
0.29768286
32.168528
30.897288
30.330233
29.313845
28.886913
27.99329
27.57913
26.730804
26.298958
25.477267
25.024564
24.224122
23.752176
22.970141
22.481123
21.715232
21.211112
20.45945
19.94198
19.202877
18.673617
17.94559
17.405938
16.687662
16.13887
15.429158
14.87235
14.170136
13.606323
12.910648
12.340738
11.65074
11.075552
10.390452
9.8107288
9.1298189
8.5462352
7.8688708
7.282044
6.6076327
6.0181322
5.3461253
4.7544809
4.0843656
3.4910752
2.8223669
2.2279029
1.5601365
0.96495451
0.29768288
32.168261
30.897204
30.330252
29.313862
28.886923
27.993295
27.579132
26.730805
26.298958
25.477267
25.024564
24.224122
23.752176
22.970141
22.481123
21.715232
21.211112
20.45945
19.94198
19.202877
18.673617
17.94559
17.405938
16.687662
16.13887
15.429158
14.87235
14.170136
13.606323
12.910648
12.340738
11.65074
11.075552
10.390452
9.8107288
9.1298189
8.5462352
7.8688708
7.282044
6.6076327
6.0181322
5.3461253
4.7544809
4.0843656
3.4910751
2.8223669
2.2279028
1.5601365
0.96495444
0.29768291
32.168132
30.897198
30.330252
29.31387
28.886929
27.993297
27.579133
26.730806
26.298958
25.477267
25.024564
24.224122
23.752176
22.970141
22.481123
21.715232
21.211112
20.45945
19.94198
19.202877
18.673617
17.94559
17.405938
16.687662
16.13887
15.429158
14.87235
14.170136
13.606323
12.910648
12.340738
11.65074
11.075552
10.390452
9.8107288
9.1298189
8.5462352
7.8688708
7.282044
6.6076327
6.0181322
5.3461253
4.7544809
4.0843657
3.4910751
2.8223669
2.2279028
1.5601365
0.96495438
0.29768293
32.168112
30.897198
30.330264
29.313872
28.886928
27.993297
27.579133
26.730806
26.298958
25.477267
25.024564
24.224122
23.752176
22.970141
22.481123
21.715232
21.211112
20.45945
19.94198
19.202877
18.673617
17.94559
17.405938
16.687662
16.13887
15.429158
14.87235
14.170136
13.606323
12.910648
12.340738
11.65074
11.075552
10.390452
9.8107288
9.1298189
8.5462352
7.8688708
7.282044
6.6076327
6.0181322
5.3461253
4.7544809
4.0843657
3.4910751
2.8223669
2.2279028
1.5601365
0.96495438
0.29768293
32.168208
30.897261
30.330254
29.313862
28.886923
27.993294
27.579132
26.730805
26.298958
25.477267
25.024564
24.224122
23.752176
22.970141
22.481123
21.715232
21.211112
20.45945
19.94198
19.202877
18.673617
17.94559
17.405938
16.687662
16.13887
15.429158
14.87235
14.170136
13.606323
12.910648
12.340738
11.65074
11.075552
10.390452
9.8107288
9.1298189
8.5462352
7.8688708
7.282044
6.6076327
6.0181322
5.3461253
4.7544809
4.0843656
3.4910751
2.8223669
2.2279028
1.5601365
0.96495444
0.29768291
32.168422
30.897354
30.33026
29.313847
28.886912
27.99329
27.57913
26.730804
26.298958
25.477267
25.024564
24.224122
23.752176
22.970141
22.481123
21.715232
21.211112
20.45945
19.94198
19.202877
18.673617
17.94559
17.405938
16.687662
16.13887
15.429158
14.87235
14.170136
13.606323
12.910648
12.340738
11.65074
11.075552
10.390452
9.8107288
9.1298189
8.5462352
7.8688708
7.282044
6.6076327
6.0181322
5.3461253
4.7544809
4.0843656
3.4910752
2.8223669
2.2279029
1.5601365
0.96495451
0.29768288
32.168807
30.897523
30.330256
29.313829
28.886899
27.993283
27.579128
26.730802
26.298958
25.477267
25.024563
24.224122
23.752176
22.970141
22.481123
21.715232
21.211112
20.45945
19.94198
19.202877
18.673617
17.94559
17.405938
16.687662
16.13887
15.429158
14.87235
14.170136
13.606323
12.910648
12.340738
11.65074
11.075552
10.390452
9.8107288
9.1298189
8.5462352
7.8688708
7.282044
6.6076327
6.0181322
5.3461253
4.7544809
4.0843656
3.4910752
2.8223669
2.2279029
1.5601365
0.96495456
0.29768286
32.169342
30.89771
30.330287
29.313815
28.886886
27.993276
27.579126
26.730799
26.298959
25.477266
25.024562
24.224121
23.752176
22.970142
22.481123
21.715232
21.211112
20.45945
19.941979
19.202877
18.673617
17.94559
17.405938
16.687662
16.13887
15.429158
14.87235
14.170136
13.606323
12.910648
12.340738
11.65074
11.075552
10.390452
9.8107287
9.1298189
8.5462352
7.8688708
7.282044
6.6076327
6.0181322
5.3461253
4.7544809
4.0843656
3.4910752
2.8223669
2.2279029
1.5601365
0.96495458
0.29768285
32.170096
30.897975
30.330327
29.313807
28.886875
27.993269
27.579125
26.730797
26.298961
25.477265
25.024561
24.224121
23.752176
22.970142
22.481123
21.715232
21.211112
20.459451
19.941979
19.202877
18.673617
17.94559
17.405938
16.687662
16.13887
15.429158
14.87235
14.170136
13.606323
12.910648
12.340738
11.65074
11.075552
10.390452
9.8107287
9.1298189
8.5462351
7.8688709
7.2820439
6.6076327
6.0181322
5.3461253
4.7544809
4.0843657
3.4910751
2.8223669
2.2279029
1.5601365
0.96495458
0.29768285
32.170964
30.898293
30.330425
29.313811
28.886867
27.993264
27.579125
26.730793
26.298962
25.477263
25.02456
24.224121
23.752175
22.970142
22.481123
21.715232
21.211112
20.459451
19.941979
19.202877
18.673617
17.94559
17.405938
16.687662
16.13887
15.429158
14.87235
14.170136
13.606323
12.910648
12.340738
11.65074
11.075552
10.390452
9.8107287
9.129819
8.5462351
7.8688709
7.2820439
6.6076327
6.0181321
5.3461254
4.7544809
4.0843657
3.4910751
2.8223669
2.2279029
1.5601365
0.96495454
0.29768286
32.17208
30.898704
30.330547
29.313829
28.886864
27.993259
27.579126
26.730791
26.298965
25.477261
25.024559
24.22412
23.752175
22.970142
22.481123
21.715233
21.211112
20.459451
19.941979
19.202877
18.673616
17.94559
17.405938
16.687662
16.13887
15.429158
14.87235
14.170136
13.606323
12.910648
12.340738
11.65074
11.075552
10.390452
9.8107286
9.129819
8.5462351
7.8688709
7.2820439
6.6076328
6.0181321
5.3461254
4.7544808
4.0843657
3.4910751
2.8223669
2.2279028
1.5601365
0.96495448
0.29768288
32.173311
30.899213
30.330743
29.313867
28.886867
27.993257
27.579128
26.730788
26.298967
25.477259
25.024558
24.22412
23.752175
22.970142
22.481123
21.715233
21.211112
20.459451
19.941979
19.202877
18.673616
17.945591
17.405937
16.687662
16.13887
15.429158
14.87235
14.170136
13.606322
12.910648
12.340737
11.65074
11.075552
10.390452
9.8107286
9.1298191
8.546235
7.868871
7.2820438
6.6076328
6.0181321
5.3461254
4.7544808
4.0843658
3.491075
2.822367
2.2279028
1.5601365
0.9649544
0.29768291
32.174718
30.899791
30.330972
29.313923
28.886877
27.993257
27.579132
26.730786
26.298969
25.477257
25.024557
24.22412
23.752175
22.970142
22.481123
21.715233
21.211111
20.459451
19.941979
19.202878
18.673616
17.945591
17.405937
16.687663
16.13887
15.429158
14.87235
14.170136
13.606322
12.910648
12.340737
11.65074
11.075552
10.390452
9.8107285
9.1298191
8.5462349
7.868871
7.2820438
6.6076329
6.018132
5.3461255
4.7544808
4.0843658
3.491075
2.822367
2.2279028
1.5601365
0.96495431
0.29768294
32.176431
30.900527
30.331282
29.314
28.886894
27.993259
27.579138
26.730784
26.29897
25.477254
25.024556
24.22412
23.752175
22.970143
22.481123
21.715233
21.211111
20.459451
19.941979
19.202878
18.673616
17.945591
17.405937
16.687663
16.13887
15.429158
14.87235
14.170136
13.606322
12.910648
12.340737
11.65074
11.075552
10.390452
9.8107284
9.1298192
8.5462349
7.8688711
7.2820437
6.6076329
6.018132
5.3461255
4.7544807
4.0843659
3.4910749
2.8223671
2.2279027
1.5601366
0.9649542
0.29768298
32.178078
30.901299
30.331629
29.314098
28.886919
27.993264
27.579145
26.730782
26.298971
25.477252
25.024556
24.22412
23.752174
22.970143
22.481122
21.715233
21.211111
20.459452
19.941979
19.202878
18.673616
17.945591
17.405937
16.687663
16.13887
15.429158
14.87235
14.170136
13.606322
12.910648
12.340737
11.65074
11.075552
10.390452
9.8107284
9.1298193
8.5462348
7.8688712
7.2820437
6.607633
6.0181319
5.3461256
4.7544807
4.0843659
3.4910749
2.8223671
2.2279027
1.5601366
0.96495408
0.29768302
32.180403
30.902275
30.332062
29.314221
28.886953
27.993271
27.579154
26.73078
26.298971
25.47725
25.024555
24.22412
23.752174
22.970143
22.481122
21.715234
21.211111
20.459452
19.941979
19.202878
18.673616
17.945591
17.405937
16.687663
16.138869
15.429159
14.87235
14.170136
13.606322
12.910648
12.340737
11.65074
11.075552
10.390452
9.8107283
9.1298193
8.5462347
7.8688712
7.2820436
6.607633
6.0181318
5.3461257
4.7544806
4.084366
3.4910748
2.8223672
2.2279026
1.5601367
0.96495394
0.29768306
32.182394
30.903313
30.33255
29.314369
28.886997
27.993281
27.579166
26.730778
26.298971
25.477249
25.024554
24.224121
23.752174
22.970143
22.481122
21.715234
21.211111
20.459452
19.941978
19.202878
18.673616
17.945591
17.405937
16.687663
16.138869
15.429159
14.87235
14.170136
13.606322
12.910648
12.340737
11.65074
11.075552
10.390452
9.8107282
9.1298194
8.5462347
7.8688713
7.2820435
6.6076331
6.0181318
5.3461257
4.7544805
4.084366
3.4910748
2.8223673
2.2279025
1.5601367
0.96495379
0.29768311
32.18543
30.904571
30.333125
29.314545
28.887051
27.993293
27.57918
26.730776
26.29897
25.477248
25.024554
24.224121
23.752174
22.970144
22.481122
21.715234
21.211111
20.459452
19.941978
19.202878
18.673615
17.945591
17.405937
16.687663
16.138869
15.429159
14.872349
14.170137
13.606322
12.910648
12.340737
11.65074
11.075551
10.390452
9.8107281
9.1298195
8.5462346
7.8688714
7.2820434
6.6076332
6.0181317
5.3461258
4.7544804
4.0843661
3.4910747
2.8223673
2.2279025
1.5601368
0.96495363
0.29768315
32.187949
30.905948
30.33377
29.314752
28.887116
27.99331
27.579195
26.730773
26.298969
25.477248
25.024553
24.224121
23.752173
22.970144
22.481122
21.715235
21.21111
20.459452
19.941978
19.202879
18.673615
17.945592
17.405936
16.687663
16.138869
15.429159
14.872349
14.170137
13.606322
12.910649
12.340737
11.65074
11.075551
10.390453
9.810728
9.1298196
8.5462345
7.8688715
7.2820433
6.6076333
6.0181316
5.3461259
4.7544804
4.0843662
3.4910746
2.8223674
2.2279024
1.5601368
0.96495345
0.2976832
32.191866
30.907531
30.3345
29.314988
28.887192
27.99333
27.579211
26.73077
26.298968
25.477248
25.024553
24.224122
23.752173
22.970145
22.481121
21.715235
21.21111
20.459453
19.941978
19.202879
18.673615
17.945592
17.405936
16.687664
16.138869
15.429159
14.872349
14.170137
13.606322
12.910649
12.340737
11.650741
11.075551
10.390453
9.8107279
9.1298197
8.5462344
7.8688716
7.2820432
6.6076334
6.0181315
5.346126
4.7544803
4.0843663
3.4910745
2.8223675
2.2279023
1.5601369
0.96495326
0.29768326
32.19505
30.909283
30.335313
29.315255
28.887279
27.993353
27.579227
26.730767
26.298967
25.477248
25.024552
24.224122
23.752173
22.970145
22.481121
21.715235
21.21111
20.459453
19.941977
19.202879
18.673615
17.945592
17.405936
16.687664
16.138869
15.429159
14.872349
14.170137
13.606321
12.910649
12.340736
11.650741
11.075551
10.390453
9.8107277
9.1298199
8.5462342
7.8688717
7.2820431
6.6076335
6.0181314
5.3461261
4.7544802
4.0843664
3.4910744
2.8223676
2.2279022
1.560137
0.96495306
0.29768331
32.200044
30.911207
30.336201
29.315543
28.887375
27.993379
27.579243
26.730765
26.298967
25.477249
25.024552
24.224123
23.752173
22.970146
22.481121
21.715236
21.211109
20.459453
19.941977
19.202879
18.673615
17.945592
17.405936
16.687664
16.138868
15.42916
14.872349
14.170137
13.606321
12.910649
12.340736
11.650741
11.075551
10.390453