/*--------------------------------*- C++ -*----------------------------------*\
| =========                 |                                                 |
| \\      /  F ield         | OpenFOAM: The Open Source CFD Toolbox           |
|  \\    /   O peration     | Version:  2312                                  |
|   \\  /    A nd           | Website:  www.openfoam.com                      |
|    \\/     M anipulation  |                                                 |
\*---------------------------------------------------------------------------*/
FoamFile
{
    version     2.0;
    format      ascii;
    arch        "LSB;label=32;scalar=64";
    class       surfaceScalarField;
    location    "3";
    object      phi;
}
// * * * * * * * * * * * * * * * * * * * * * * * * * * * * * * * * * * * * * //

dimensions      [0 3 -1 0 0 0 0];

oriented        oriented;

internalField   nonuniform List<scalar> 
7870
(
1.3084033e-10
2.8174097e-09
1.3356605e-10
-2.7257164e-12
1.1283604e-10
2.0729997e-11
1.1390465e-10
-1.0686089e-12
1.1436293e-10
-4.5827946e-13
1.1287075e-10
1.4921835e-12
1.1380603e-10
-9.3528852e-13
1.1264752e-10
1.1585169e-12
1.13697e-10
-1.0494799e-12
1.1266767e-10
1.0293253e-12
1.1363505e-10
-9.6737577e-13
1.127123e-10
9.2274262e-13
1.1358143e-10
-8.6912441e-13
1.1275727e-10
8.241601e-13
1.1353496e-10
-7.7768831e-13
1.1279876e-10
7.3619829e-13
1.1349451e-10
-6.9575131e-13
1.1283597e-10
6.5854079e-13
1.1345904e-10
-6.2306566e-13
1.1286899e-10
5.900437e-13
1.1342783e-10
-5.5883859e-13
1.1289815e-10
5.2968337e-13
1.1340039e-10
-5.0224168e-13
1.129238e-10
4.7659038e-13
1.133763e-10
-4.52503e-13
1.129463e-10
4.3000698e-13
1.1335522e-10
-4.0892273e-13
1.1296596e-10
3.892631e-13
1.1333683e-10
-3.7087493e-13
1.1298307e-10
3.5376703e-13
1.1332087e-10
-3.3780555e-13
1.1299787e-10
3.2299862e-13
1.133071e-10
-3.0922894e-13
1.130106e-10
2.9650438e-13
1.1329532e-10
-2.8472298e-13
1.1302143e-10
2.7389247e-13
1.1328535e-10
-2.6392494e-13
1.1303053e-10
2.548276e-13
1.1327705e-10
-2.4652626e-13
1.1303803e-10
2.3902669e-13
1.1327029e-10
-2.3226866e-13
1.1304404e-10
2.2625565e-13
1.1326497e-10
-2.2093554e-13
1.1304864e-10
2.1633958e-13
1.1326097e-10
-2.1233862e-13
1.1305191e-10
2.0906023e-13
1.1325886e-10
-2.0694777e-13
1.1305696e-10
2.0189902e-13
1.1326835e-10
-2.1139141e-13
1.95102e-13
3.5102221e-10
5.4146375e-09
3.8126619e-10
-3.2969697e-11
3.3015211e-10
7.1844061e-11
3.3069718e-10
-1.6136738e-12
3.3097565e-10
-7.3675446e-13
3.2856493e-10
3.9029046e-12
3.2949198e-10
-1.8623458e-12
3.2780764e-10
2.8428617e-12
3.2926749e-10
-2.5093298e-12
3.2779036e-10
2.5064497e-12
3.2917658e-10
-2.3535975e-12
3.2784406e-10
2.255261e-12
3.2909631e-10
-2.1213677e-12
3.2790529e-10
2.015176e-12
3.2902753e-10
-1.8999209e-12
3.2796403e-10
1.7996974e-12
3.2896852e-10
-1.7002449e-12
3.2801742e-10
1.609642e-12
3.2891714e-10
-1.5227759e-12
3.2806503e-10
1.4421469e-12
3.2887206e-10
-1.365866e-12
3.2810713e-10
1.2946119e-12
3.2883247e-10
-1.2275757e-12
3.2814419e-10
1.1648679e-12
3.2879773e-10
-1.1060416e-12
3.2817669e-10
1.0510444e-12
3.2876733e-10
-9.9955725e-13
3.282051e-10
9.5149443e-13
3.2874082e-10
-9.0659197e-13
3.2822982e-10
8.6476766e-13
3.287178e-10
-8.2579e-13
3.2825121e-10
7.8959051e-13
3.2869794e-10
-7.5596348e-13
3.2826959e-10
7.2485348e-13
3.2868095e-10
-6.9607989e-13
3.2828525e-10
6.6959889e-13
3.2866657e-10
-6.4525259e-13
3.2829839e-10
6.230066e-13
3.286546e-10
-6.0272704e-13
3.2830924e-10
5.8438438e-13
3.2864484e-10
-5.6787173e-13
3.2831794e-10
5.5315858e-13
3.2863716e-10
-5.4015328e-13
3.2832458e-10
5.2891563e-13
3.286313e-10
-5.1905515e-13
3.2832917e-10
5.1118671e-13
3.2862812e-10
-5.058963e-13
3.2833788e-10
4.9214255e-13
3.2865167e-10
-5.2518227e-13
4.7622169e-13
5.6626571e-10
7.7966217e-09
6.160441e-10
-8.2748084e-11
5.4122115e-10
1.46667e-10
5.4207525e-10
-2.4677752e-12
5.4162758e-10
-2.890896e-13
5.3898503e-10
6.5454563e-12
5.393112e-10
-2.1885167e-12
5.3772237e-10
4.4316864e-12
5.3903118e-10
-3.8181358e-12
5.3765035e-10
3.8872706e-12
5.3894756e-10
-3.6508024e-12
5.3768747e-10
3.515351e-12
5.3886832e-10
-3.3022198e-12
5.3774059e-10
3.1429082e-12
5.388011e-10
-2.9604265e-12
5.3779463e-10
2.8061624e-12
5.3874451e-10
-2.6501155e-12
5.378447e-10
2.5094489e-12
5.3869569e-10
-2.3737583e-12
5.3788963e-10
2.2482055e-12
5.3865303e-10
-2.1292684e-12
5.3792944e-10
2.0182058e-12
5.3861562e-10
-1.9137589e-12
5.379645e-10
1.8159899e-12
5.3858282e-10
-1.7243609e-12
5.3799526e-10
1.6386094e-12
5.3855412e-10
-1.5584195e-12
5.3802213e-10
1.4834804e-12
5.3852909e-10
-1.4135469e-12
5.3804552e-10
1.3483351e-12
5.3850736e-10
-1.2876271e-12
5.3806577e-10
1.2311846e-12
5.3848861e-10
-1.1788069e-12
5.3808317e-10
1.1302975e-12
5.3847256e-10
-1.0854754e-12
5.3809798e-10
1.0441808e-12
5.3845898e-10
-1.0062504e-12
5.3811043e-10
9.7155522e-13
5.3844766e-10
-9.3995492e-13
5.381207e-10
9.1134033e-13
5.3843843e-10
-8.8560325e-13
5.3812895e-10
8.6263887e-13
5.3843116e-10
-8.4235565e-13
5.3813525e-10
8.2482713e-13
5.384255e-10
-8.0931121e-13
5.3813943e-10
7.9725465e-13
5.3842241e-10
-7.888725e-13
5.3814986e-10
7.6469076e-13
5.3845807e-10
-8.3339029e-13
7.4163992e-13
7.584467e-10
9.986425e-09
8.3988148e-10
-1.6418286e-10
7.4646419e-10
2.4008427e-10
7.4772205e-10
-3.7256342e-12
7.4666211e-10
7.7084534e-13
7.4378542e-10
9.4221439e-12
7.4357688e-10
-1.9799751e-12
7.4210027e-10
5.908286e-12
7.4326543e-10
-4.9832884e-12
7.4198779e-10
5.164902e-12
7.4319472e-10
-4.8577325e-12
7.420109e-10
4.6991736e-12
7.4311749e-10
-4.4088131e-12
7.4205641e-10
4.203997e-12
7.4305219e-10
-3.9562088e-12
7.4210576e-10
3.7525932e-12
7.4299823e-10
-3.54258e-12
7.4215238e-10
3.3552989e-12
7.4295212e-10
-3.1735008e-12
7.4219448e-10
3.0058519e-12
7.4291201e-10
-2.8467951e-12
7.4223186e-10
2.6983532e-12
7.4287688e-10
-2.5587755e-12
7.422648e-10
2.4280653e-12
7.4284609e-10
-2.3056511e-12
7.422937e-10
2.1910015e-12
7.4281916e-10
-2.0838785e-12
7.4231896e-10
1.9836852e-12
7.4279567e-10
-1.890264e-12
7.4234093e-10
1.803076e-12
7.4277528e-10
-1.7219752e-12
7.4235996e-10
1.6465105e-12
7.4275768e-10
-1.5765334e-12
7.4237631e-10
1.5116721e-12
7.4274262e-10
-1.4517836e-12
7.4239023e-10
1.3965648e-12
7.4272986e-10
-1.3458775e-12
7.4240194e-10
1.2994767e-12
7.4271923e-10
-1.2572403e-12
7.424116e-10
1.2189616e-12
7.4271055e-10
-1.1845522e-12
7.4241938e-10
1.1538143e-12
7.427037e-10
-1.1266785e-12
7.424253e-10
1.1032246e-12
7.4269827e-10
-1.0822774e-12
7.4242908e-10
1.0664496e-12
7.4269509e-10
-1.0548906e-12
7.4244045e-10
1.0193379e-12
7.4274002e-10
-1.1329627e-12
9.9111789e-13
9.5890236e-10
1.1975773e-08
1.0538344e-09
-2.5911487e-10
9.4560231e-10
3.4831633e-10
9.4768706e-10
-5.8103804e-12
9.4605553e-10
2.4023615e-12
9.4294651e-10
1.2531168e-11
9.4228442e-10
-1.3178932e-12
9.4094149e-10
7.2512163e-12
9.4196992e-10
-6.011713e-12
9.4080236e-10
6.3324572e-12
9.4191775e-10
-5.9731238e-12
9.4081395e-10
5.8029781e-12
9.4184354e-10
-5.438406e-12
9.4085234e-10
5.195201e-12
9.4178057e-10
-4.8844396e-12
9.4089703e-10
4.6361358e-12
9.4172948e-10
-4.3750326e-12
9.409401e-10
4.1446779e-12
9.4168627e-10
-3.9196621e-12
9.4097926e-10
3.7128594e-12
9.4164882e-10
-3.5163538e-12
9.410141e-10
3.3330718e-12
9.4161608e-10
-3.1607545e-12
9.4104483e-10
2.9993217e-12
9.4158741e-10
-2.8482345e-12
9.4107178e-10
2.7066293e-12
9.4156233e-10
-2.5744249e-12
9.4109534e-10
2.4506747e-12
9.4154046e-10
-2.3353802e-12
9.4111584e-10
2.2276929e-12
9.4152147e-10
-2.127599e-12
9.4113359e-10
2.0343899e-12
9.4150507e-10
-1.9480189e-12
9.4114884e-10
1.8679025e-12
9.4149104e-10
-1.7939767e-12
9.4116184e-10
1.7257658e-12
9.4147915e-10
-1.6631895e-12
9.4117276e-10
1.6058636e-12
9.4146923e-10
-1.5537107e-12
9.4118179e-10
1.5064071e-12
9.4146114e-10
-1.4639069e-12
9.4118906e-10
1.4258996e-12
9.4145474e-10
-1.3923618e-12
9.411946e-10
1.3633645e-12
9.4144957e-10
-1.3372422e-12
9.4119795e-10
1.3180657e-12
9.4144624e-10
-1.3031811e-12
9.4120976e-10
1.2558201e-12
9.4149807e-10
-1.4212724e-12
1.222813e-12
1.1337861e-09
1.3790236e-08
1.2552566e-09
-3.8058532e-10
1.1389195e-09
4.6465336e-10
1.142055e-09
-8.9458431e-12
1.1397846e-09
4.6727331e-12
1.1364715e-09
1.5844275e-11
1.135434e-09
-2.8034897e-13
1.1342479e-09
8.4372555e-12
1.1351459e-09
-6.9096571e-12
1.1340942e-09
7.3841729e-12
1.1351172e-09
-6.9961818e-12
1.1340964e-09
6.8237504e-12
1.1350469e-09
-6.3888308e-12
1.1341282e-09
6.1138972e-12
1.1349866e-09
-5.7428538e-12
1.1341682e-09
5.454499e-12
1.1349386e-09
-5.1453894e-12
1.1342077e-09
4.8755786e-12
1.1348984e-09
-4.6103722e-12
1.1342438e-09
4.3674534e-12
1.1348637e-09
-4.1362731e-12
1.134276e-09
3.9207815e-12
1.1348335e-09
-3.7181996e-12
1.1343044e-09
3.5283443e-12
1.134807e-09
-3.3507675e-12
1.1343294e-09
3.1842207e-12
1.1347838e-09
-3.0288476e-12
1.1343512e-09
2.8832999e-12
1.1347636e-09
-2.7477999e-12
1.1343702e-09
2.6211442e-12
1.1347461e-09
-2.5035036e-12
1.1343866e-09
2.393875e-12
1.1347309e-09
-2.2923562e-12
1.1344007e-09
2.1981225e-12
1.1347179e-09
-2.1112241e-12
1.1344127e-09
2.0309889e-12
1.1347069e-09
-1.9574225e-12
1.1344228e-09
1.8899826e-12
1.1346978e-09
-1.8286595e-12
1.1344312e-09
1.7729968e-12
1.1346903e-09
-1.7230103e-12
1.1344379e-09
1.6782605e-12
1.1346844e-09
-1.638792e-12
1.1344431e-09
1.6046487e-12
1.1346795e-09
-1.5736378e-12
1.134446e-09
1.5515364e-12
1.134676e-09
-1.5331551e-12
1.1344578e-09
1.4739477e-12
1.1347326e-09
-1.6960429e-12
1.4351646e-12
1.3131454e-09
1.5425341e-08
1.4487773e-09
-5.1621723e-10
1.3264706e-09
5.8696006e-10
1.3306901e-09
-1.3165418e-11
1.3277974e-09
7.5655213e-12
1.3243492e-09
1.9292384e-11
1.3230194e-09
1.0494756e-12
1.3220186e-09
9.4381171e-12
1.3227932e-09
-7.6843435e-12
1.3218626e-09
8.314822e-12
1.3227934e-09
-7.9269719e-12
1.321858e-09
7.7591277e-12
1.3227278e-09
-7.2586218e-12
1.3218836e-09
6.9581022e-12
1.3226706e-09
-6.5298144e-12
1.3219191e-09
6.2059858e-12
1.3226258e-09
-5.8521301e-12
1.3219549e-09
5.5465273e-12
1.3225888e-09
-5.2442636e-12
1.3219879e-09
4.9683339e-12
1.3225569e-09
-4.7053282e-12
1.3220174e-09
4.4603234e-12
1.3225292e-09
-4.2300114e-12
1.3220435e-09
4.014093e-12
1.3225049e-09
-3.8122593e-12
1.3220663e-09
3.6228363e-12
1.3224837e-09
-3.4462502e-12
1.3220863e-09
3.2807093e-12
1.3224652e-09
-3.1267089e-12
1.3221037e-09
2.9826546e-12
1.3224492e-09
-2.8489462e-12
1.3221188e-09
2.7242567e-12
1.3224353e-09
-2.6088651e-12
1.3221317e-09
2.5016813e-12
1.3224234e-09
-2.4029002e-12
1.3221428e-09
2.3116337e-12
1.3224133e-09
-2.2279982e-12
1.3221521e-09
2.1512777e-12
1.3224049e-09
-2.08155e-12
1.3221597e-09
2.0182131e-12
1.3223981e-09
-1.9613615e-12
1.3221659e-09
1.9104132e-12
1.3223926e-09
-1.8655004e-12
1.3221707e-09
1.8266199e-12
1.3223881e-09
-1.7910344e-12
1.3221732e-09
1.7664261e-12
1.3223844e-09
-1.744383e-12
1.3221847e-09
1.6736012e-12
1.322444e-09
-1.9553321e-12
1.6272322e-12
1.4793663e-09
1.6894225e-08
1.6287929e-09
-6.6564384e-10
1.508103e-09
7.0764998e-10
1.513491e-09
-1.8553391e-11
1.5101366e-09
1.0919911e-11
1.5066134e-09
2.2815505e-11
1.5050537e-09
2.6092282e-12
1.5042591e-09
1.0232709e-11
1.504915e-09
-8.3402375e-12
1.5041084e-09
9.1214467e-12
1.504947e-09
-8.7656098e-12
1.5040985e-09
8.6076268e-12
1.5048867e-09
-8.0468144e-12
1.5041183e-09
7.7264546e-12
1.5048327e-09
-7.2442218e-12
1.5041493e-09
6.8894357e-12
1.5047914e-09
-6.4942295e-12
1.5041814e-09
6.156523e-12
1.5047576e-09
-5.820411e-12
1.5042113e-09
5.5146184e-12
1.5047286e-09
-5.222687e-12
1.504238e-09
4.950909e-12
1.5047035e-09
-4.6954394e-12
1.5042617e-09
4.455856e-12
1.5046815e-09
-4.2320297e-12
1.5042825e-09
4.0218304e-12
1.5046623e-09
-3.8260134e-12
1.5043007e-09
3.6423133e-12
1.5046455e-09
-3.4715409e-12
1.5043165e-09
3.3116839e-12
1.5046309e-09
-3.163407e-12
1.5043301e-09
3.0250382e-12
1.5046183e-09
-2.8970664e-12
1.5043419e-09
2.7781194e-12
1.5046076e-09
-2.6685615e-12
1.5043519e-09
2.5672744e-12
1.5045984e-09
-2.4745045e-12
1.5043604e-09
2.3893516e-12
1.5045908e-09
-2.3119971e-12
1.5043673e-09
2.2416843e-12
1.5045846e-09
-2.1785996e-12
1.504373e-09
2.1220087e-12
1.5045796e-09
-2.0721486e-12
1.5043773e-09
2.0289477e-12
1.5045754e-09
-1.9891248e-12
1.5043794e-09
1.9624155e-12
1.5045716e-09
-1.9365716e-12
1.5043905e-09
1.8547268e-12
1.5046326e-09
-2.1974932e-12
1.7985536e-12
1.6354732e-09
1.8207002e-08
1.8011057e-09
-8.3127633e-10
1.6837115e-09
8.2504412e-10
1.6892995e-09
-2.4141418e-11
1.6866203e-09
1.359913e-11
1.6832334e-09
2.6202377e-11
1.6815332e-09
4.3094676e-12
1.6809693e-09
1.0796586e-11
1.6815118e-09
-8.882733e-12
1.6808313e-09
9.80196e-12
1.6815784e-09
-9.512723e-12
1.6808177e-09
9.3683516e-12
1.6815238e-09
-8.7529693e-12
1.6808322e-09
8.4181083e-12
1.6814734e-09
-7.8854664e-12
1.6808587e-09
7.5041524e-12
1.6814356e-09
-7.0711001e-12
1.6808871e-09
6.7049773e-12
1.681405e-09
-6.3382768e-12
1.6809138e-09
6.0057901e-12
1.681379e-09
-5.6878611e-12
1.6809378e-09
5.3920734e-12
1.6813564e-09
-5.1140382e-12
1.6809591e-09
4.8532105e-12
1.6813367e-09
-4.609671e-12
1.6809777e-09
4.3808143e-12
1.6813195e-09
-4.1677618e-12
1.680994e-09
3.9677534e-12
1.6813045e-09
-3.7819485e-12
1.6810082e-09
3.6078991e-12
1.6812914e-09
-3.4465635e-12
1.6810205e-09
3.2959092e-12
1.6812801e-09
-3.1566594e-12
1.6810311e-09
3.0271474e-12
1.6812705e-09
-2.9079266e-12
1.6810401e-09
2.7976388e-12
1.6812623e-09
-2.6966768e-12
1.6810477e-09
2.6039488e-12
1.6812554e-09
-2.5197522e-12
1.6810539e-09
2.4431694e-12
1.6812498e-09
-2.3744898e-12
1.681059e-09
2.31282e-12
1.6812454e-09
-2.2585157e-12
1.6810629e-09
2.2114164e-12
1.6812415e-09
-2.1677129e-12
1.6810646e-09
2.1392921e-12
1.6812376e-09
-2.109548e-12
1.681075e-09
2.0173319e-12
1.6812987e-09
-2.4211441e-12
1.9490047e-12
1.7926848e-09
1.9362567e-08
1.9617575e-09
-1.0003491e-09
1.8536614e-09
9.3314026e-10
1.857617e-09
-2.8096974e-11
1.8570542e-09
1.4161841e-11
1.8541969e-09
2.9059724e-11
1.8524563e-09
6.0500779e-12
1.85215e-09
1.1102891e-11
1.8525847e-09
-9.3174806e-12
1.8520315e-09
1.03552e-11
1.852688e-09
-1.0169265e-11
1.8520154e-09
1.0040998e-11
1.8526395e-09
-9.3770828e-12
1.8520249e-09
9.0327033e-12
1.8525928e-09
-8.4533691e-12
1.8520471e-09
8.0498629e-12
1.8525585e-09
-7.582544e-12
1.8520718e-09
7.1916728e-12
1.8525312e-09
-6.7976696e-12
1.8520954e-09
6.4416594e-12
1.8525082e-09
-6.1006697e-12
1.8521166e-09
5.7836426e-12
1.8524882e-09
-5.4856364e-12
1.8521354e-09
5.2059919e-12
1.8524708e-09
-4.9450196e-12
1.852152e-09
4.6996311e-12
1.8524555e-09
-4.4713385e-12
1.8521664e-09
4.2568782e-12
1.8524422e-09
-4.0577813e-12
1.852179e-09
3.8711548e-12
1.8524307e-09
-3.6982707e-12
1.8521899e-09
3.5367295e-12
1.8524207e-09
-3.3875045e-12
1.8521992e-09
3.2486292e-12
1.8524122e-09
-3.1208608e-12
1.8522072e-09
3.0025962e-12
1.8524049e-09
-2.8943858e-12
1.8522139e-09
2.7949427e-12
1.8523989e-09
-2.7046901e-12
1.8522195e-09
2.6225467e-12
1.8523939e-09
-2.5489123e-12
1.852224e-09
2.482731e-12
1.85239e-09
-2.4244886e-12
1.8522275e-09
2.3739156e-12
1.8523865e-09
-2.3267042e-12
1.8522288e-09
2.2969409e-12
1.8523825e-09
-2.2632468e-12
1.8522384e-09
2.1614848e-12
1.8524424e-09
-2.6251452e-12
2.0787223e-12
1.9290849e-09
2.0381732e-08
2.1155588e-09
-1.186823e-09
2.017727e-09
1.0309721e-09
2.0198707e-09
-3.0240661e-11
2.0216353e-09
1.2397209e-11
2.0195562e-09
3.1138866e-11
2.0178425e-09
7.763788e-12
2.0178073e-09
1.1138065e-11
2.0181364e-09
-9.6465455e-12
2.0177095e-09
1.0782039e-11
2.0182764e-09
-1.0736149e-11
2.0176915e-09
1.0625903e-11
2.0182339e-09
-9.9195114e-12
2.0176963e-09
9.570332e-12
2.0181911e-09
-8.9481347e-12
2.0177143e-09
8.5266771e-12
2.0181604e-09
-8.0287138e-12
2.0177354e-09
7.6167262e-12
2.0181364e-09
-7.1987103e-12
2.0177558e-09
6.8223314e-12
2.0181163e-09
-6.4612092e-12
2.0177742e-09
6.1257039e-12
2.0180989e-09
-5.81031e-12
2.0177906e-09
5.5142696e-12
2.0180837e-09
-5.2381333e-12
2.017805e-09
4.9783327e-12
2.0180705e-09
-4.7367858e-12
2.0178176e-09
4.5097253e-12
2.0180589e-09
-4.2990677e-12
2.0178286e-09
4.101475e-12
2.0180489e-09
-3.9185456e-12
2.0178381e-09
3.7475119e-12
2.0180402e-09
-3.5896087e-12
2.0178463e-09
3.4425692e-12
2.0180328e-09
-3.3073635e-12
2.0178532e-09
3.1821431e-12
2.0180265e-09
-3.0676241e-12
2.0178591e-09
2.9623248e-12
2.0180212e-09
-2.8667996e-12
2.0178639e-09
2.779804e-12
2.0180169e-09
-2.7018531e-12
2.0178679e-09
2.6317283e-12
2.0180134e-09
-2.5700531e-12
2.0178709e-09
2.5164316e-12
2.0180103e-09
-2.4660975e-12
2.0178719e-09
2.4353382e-12
2.0180064e-09
-2.3976993e-12
2.0178805e-09
2.287312e-12
2.018064e-09
-2.8085799e-12
2.1880541e-12
2.0828772e-09
2.1247105e-08
2.2577625e-09
-1.3617083e-09
2.1753094e-09
1.1134251e-09
2.1776514e-09
-3.2582595e-11
2.180521e-09
9.5275531e-12
2.1793651e-09
3.2294765e-11
2.1777048e-09
9.4240991e-12
2.1779439e-09
1.089897e-11
2.1781673e-09
-9.8699895e-12
2.1778651e-09
1.1084253e-11
2.1783437e-09
-1.1214694e-11
2.1778458e-09
1.1123744e-11
2.1783073e-09
-1.0381042e-11
2.1778462e-09
1.0031446e-11
2.1782684e-09
-9.3703334e-12
2.1778601e-09
8.9350412e-12
2.1782414e-09
-8.4100799e-12
2.1778776e-09
7.9805533e-12
2.1782207e-09
-7.5418005e-12
2.1778949e-09
7.1481767e-12
2.1782035e-09
-6.7698259e-12
2.1779106e-09
6.4185811e-12
2.1781887e-09
-6.0883578e-12
2.1779246e-09
5.7783236e-12
2.1781757e-09
-5.4892699e-12
2.1779369e-09
5.217161e-12
2.1781644e-09
-4.9643251e-12
2.1779477e-09
4.7265018e-12
2.1781546e-09
-4.5059982e-12
2.177957e-09
4.2990381e-12
2.178146e-09
-4.1075518e-12
2.1779651e-09
3.92841e-12
2.1781387e-09
-3.7631131e-12
2.1779721e-09
3.6090991e-12
2.1781323e-09
-3.4675561e-12
2.1779781e-09
3.3363941e-12
2.1781269e-09
-3.2164976e-12
2.1779831e-09
3.1061943e-12
2.1781224e-09
-3.0061732e-12
2.1779872e-09
2.9150292e-12
2.1781188e-09
-2.8333952e-12
2.1779906e-09
2.7598921e-12
2.1781158e-09
-2.6952861e-12
2.1779932e-09
2.63904e-12
2.1781131e-09
-2.5859771e-12
2.1779939e-09
2.5545439e-12
2.1781092e-09
-2.5130241e-12
2.1780015e-09
2.3949969e-12
2.1781637e-09
-2.970738e-12
2.277517e-12
2.2033992e-09
2.1991955e-08
2.392467e-09
-1.5507761e-09
2.3272954e-09
1.1785967e-09
2.3310502e-09
-3.6337343e-11
2.333792e-09
6.7856864e-12
2.3336471e-09
3.2439672e-11
2.3320502e-09
1.1021055e-11
2.332561e-09
1.0388159e-11
2.3326778e-09
-9.9867985e-12
2.3324977e-09
1.1264335e-11
2.3328896e-09
-1.1606631e-11
2.3324779e-09
1.1535442e-11
2.3328598e-09
-1.076289e-11
2.3324745e-09
1.0416788e-11
2.332825e-09
-9.7208799e-12
2.3324844e-09
9.2756913e-12
2.3328017e-09
-8.7274028e-12
2.3324984e-09
8.2838343e-12
2.3327842e-09
-7.827595e-12
2.3325126e-09
7.4198025e-12
2.3327698e-09
-7.0270908e-12
2.3325256e-09
6.6628097e-12
2.3327575e-09
-6.3202794e-12
2.3325372e-09
5.9986242e-12
2.3327468e-09
-5.6988669e-12
2.3325475e-09
5.4165277e-12
2.3327375e-09
-5.1543407e-12
2.3325564e-09
4.9075701e-12
2.3327293e-09
-4.6789101e-12
2.3325642e-09
4.4641621e-12
2.3327222e-09
-4.2655862e-12
2.3325709e-09
4.0797038e-12
2.3327161e-09
-3.9082796e-12
2.3325767e-09
3.7484671e-12
2.3327109e-09
-3.6016713e-12
2.3325817e-09
3.465569e-12
2.3327064e-09
-3.3412138e-12
2.3325858e-09
3.2267492e-12
2.3327027e-09
-3.1229987e-12
2.3325893e-09
3.028402e-12
2.3326996e-09
-2.9437103e-12
2.3325921e-09
2.8673887e-12
2.3326972e-09
-2.8003481e-12
2.3325943e-09
2.7418977e-12
2.3326949e-09
-2.6865058e-12
2.3325947e-09
2.6546956e-12
2.3326911e-09
-2.6094178e-12
2.3326013e-09
2.4847763e-12
2.3327417e-09
-3.1110989e-12
2.3477602e-12
2.3528622e-09
2.2587343e-08
2.5194354e-09
-1.7173493e-09
2.4735223e-09
1.2245099e-09
2.4793487e-09
-4.2163801e-11
2.481534e-09
4.6004733e-12
2.4824178e-09
3.1555843e-11
2.480886e-09
1.2552804e-11
2.4816625e-09
9.6116546e-12
2.4816703e-09
-9.9945413e-12
2.4816082e-09
1.1326363e-11
2.481915e-09
-1.1913401e-11
2.481588e-09
1.18625e-11
2.4818915e-09
-1.1066465e-11
2.4815809e-09
1.0727454e-11
2.4818609e-09
-1.0000953e-11
2.481587e-09
9.5496427e-12
2.4818413e-09
-8.9816924e-12
2.4815976e-09
8.5274902e-12
2.481827e-09
-8.0569731e-12
2.4816088e-09
7.638029e-12
2.4818155e-09
-7.2337755e-12
2.4816192e-09
6.859115e-12
2.4818056e-09
-6.5067545e-12
2.4816285e-09
6.175812e-12
2.4817971e-09
-5.8675244e-12
2.4816366e-09
5.5769995e-12
2.4817897e-09
-5.3073624e-12
2.4816438e-09
5.0534303e-12
2.4817832e-09
-4.8182731e-12
2.48165e-09
4.5972911e-12
2.4817775e-09
-4.3930663e-12
2.4816554e-09
4.2017885e-12
2.4817726e-09
-4.0254806e-12
2.4816601e-09
3.8610259e-12
2.4817684e-09
-3.710043e-12
2.481664e-09
3.569986e-12
2.4817649e-09
-3.4420744e-12
2.4816674e-09
3.3242771e-12
2.4817619e-09
-3.21755e-12
2.4816701e-09
3.1201859e-12
2.4817595e-09
-3.033051e-12
2.4816724e-09
2.954463e-12
2.4817575e-09
-2.885476e-12
2.4816742e-09
2.8252368e-12
2.4817556e-09
-2.7679181e-12
2.4816743e-09
2.7360019e-12
2.481752e-09
-2.6871473e-12
2.4816799e-09
2.5569384e-12
2.4817981e-09
-3.2293167e-12
2.3995346e-12
2.4647967e-09
2.3070796e-08
2.6415496e-09
-1.8941021e-09
2.6143905e-09
1.2516689e-09
2.6215924e-09
-4.9365715e-11
2.6238378e-09
2.3550714e-12
2.6256577e-09
2.973593e-11
2.6242102e-09
1.4000284e-11
2.62525e-09
8.5718209e-12
2.6251465e-09
-9.8910067e-12
2.6251975e-09
1.1275331e-11
2.6254204e-09
-1.2136224e-11
2.6251759e-09
1.2106935e-11
2.6254028e-09
-1.1293329e-11
2.6251654e-09
1.0964863e-11
2.6253764e-09
-1.0211957e-11
2.6251679e-09
9.7581608e-12
2.6253604e-09
-9.1741793e-12
2.6251752e-09
8.7126557e-12
2.6253492e-09
-8.2310142e-12
2.6251834e-09
7.8038661e-12
2.6253405e-09
-7.3908317e-12
2.6251912e-09
7.0083927e-12
2.6253331e-09
-6.6486244e-12
2.6251982e-09
6.3106808e-12
2.6253266e-09
-5.9959875e-12
2.6252044e-09
5.6992797e-12
2.6253211e-09
-5.4240525e-12
2.6252098e-09
5.1647088e-12
2.6253162e-09
-4.9246763e-12
2.6252145e-09
4.6989828e-12
2.6253119e-09
-4.490518e-12
2.6252186e-09
4.2951629e-12
2.6253083e-09
-4.1151879e-12
2.6252221e-09
3.9472243e-12
2.6253051e-09
-3.7930961e-12
2.6252251e-09
3.6500498e-12
2.6253025e-09
-3.5194646e-12
2.6252276e-09
3.3991475e-12
2.6253002e-09
-3.2901808e-12
2.6252297e-09
3.1907206e-12
2.6252984e-09
-3.1017445e-12
2.6252314e-09
3.0214321e-12
2.6252969e-09
-2.9509765e-12
2.6252328e-09
2.8893577e-12
2.6252954e-09
-2.8305145e-12
2.6252327e-09
2.7987378e-12
2.625292e-09
-2.7465431e-12
2.6252372e-09
2.6118183e-12
2.6253331e-09
-3.3252059e-12
2.4336654e-12
2.6078677e-09
2.3411179e-08
2.759786e-09
-2.0460205e-09
2.7500552e-09
1.2613997e-09
2.7574399e-09
-5.6750401e-11
2.760767e-09
-9.7201018e-13
2.763368e-09
2.7134902e-11
2.762028e-09
1.5340291e-11
2.7633256e-09
7.2742226e-12
2.7631082e-09
-9.6736245e-12
2.7632664e-09
1.1117112e-11
2.7634063e-09
-1.2276093e-11
2.763242e-09
1.2271228e-11
2.7633938e-09
-1.1445154e-11
2.763228e-09
1.1130745e-11
2.7633715e-09
-1.0355481e-11
2.7632269e-09
9.9027473e-12
2.763359e-09
-9.3062808e-12
2.763231e-09
8.8406622e-12
2.763351e-09
-8.3509728e-12
2.7632363e-09
7.9184949e-12
2.7633449e-09
-7.4993699e-12
2.7632416e-09
7.1116908e-12
2.7633398e-09
-6.7468743e-12
2.7632464e-09
6.4041612e-12
2.7633355e-09
-6.085132e-12
2.7632506e-09
5.7841971e-12
2.7633317e-09
-5.5051903e-12
2.7632543e-09
5.2421434e-12
2.7633284e-09
-4.9988163e-12
2.7632575e-09
4.7698975e-12
2.7633256e-09
-4.5585656e-12
2.7632603e-09
4.3604201e-12
2.7633231e-09
-4.177963e-12
2.7632627e-09
4.0075968e-12
2.7633209e-09
-3.8513391e-12
2.7632648e-09
3.7062465e-12
2.7633191e-09
-3.5738481e-12
2.7632665e-09
3.4518038e-12
2.7633176e-09
-3.3413159e-12
2.7632679e-09
3.2404157e-12
2.7633164e-09
-3.1501852e-12
2.7632691e-09
3.0686784e-12
2.7633154e-09
-2.9972206e-12
2.7632701e-09
2.9346238e-12
2.7633142e-09
-2.8746552e-12
2.7632697e-09
2.8432381e-12
2.7633112e-09
-2.7879927e-12
2.7632732e-09
2.6497968e-12
2.7633467e-09
-3.3987289e-12
2.4510305e-12
2.7216961e-09
2.3637733e-08
2.8747771e-09
-2.1991015e-09
2.8808628e-09
1.255314e-09
2.8871923e-09
-6.3079838e-11
2.8923648e-09
-6.1445699e-12
2.8955468e-09
2.3952934e-11
2.894345e-09
1.6542111e-11
2.8958853e-09
5.733904e-12
2.8955532e-09
-9.3415909e-12
2.8958133e-09
1.0857046e-11
2.895872e-09
-1.2334774e-11
2.8957856e-09
1.2357643e-11
2.8958645e-09
-1.1524086e-11
2.8957684e-09
1.1226892e-11
2.8958463e-09
-1.0433386e-11
2.895764e-09
9.985049e-12
2.8958373e-09
-9.3796132e-12
2.895765e-09
8.9129962e-12
2.8958323e-09
-8.4182676e-12
2.8957675e-09
7.9832434e-12
2.8958288e-09
-7.5606453e-12
2.8957703e-09
7.1701915e-12
2.895826e-09
-6.8026187e-12
2.8957729e-09
6.4573061e-12
2.8958237e-09
-6.13595e-12
2.8957752e-09
5.8326897e-12
2.8958217e-09
-5.5516622e-12
2.8957773e-09
5.2865739e-12
2.8958199e-09
-5.041486e-12
2.895779e-09
4.8107878e-12
2.8958184e-09
-4.5979217e-12
2.8957806e-09
4.3982371e-12
2.8958171e-09
-4.214449e-12
2.8957819e-09
4.0427563e-12
2.8958159e-09
-3.8853552e-12
2.895783e-09
3.7391327e-12
2.895815e-09
-3.6057568e-12
2.895784e-09
3.4827573e-12
2.8958141e-09
-3.371446e-12
2.8957848e-09
3.2697437e-12
2.8958134e-09
-3.1788295e-12
2.8957855e-09
3.0966447e-12
2.8958129e-09
-3.0246378e-12
2.8957861e-09
2.9614555e-12
2.8958122e-09
-2.9007559e-12
2.8957855e-09
2.869894e-12
2.8958095e-09
-2.8119346e-12
2.895788e-09
2.6712954e-12
2.8958392e-09
-3.4499831e-12
2.4525412e-12
2.8612919e-09
2.3724691e-08
2.9864058e-09
-2.3242153e-09
3.0067932e-09
1.2349266e-09
3.011906e-09
-6.8192681e-11
3.0187394e-09
-1.2977967e-11
3.022247e-09
2.0445325e-11
3.0211946e-09
1.7594528e-11
3.0229325e-09
3.995991e-12
3.0224838e-09
-8.8929046e-12
3.0228387e-09
1.0502144e-11
3.0228176e-09
-1.2313671e-11
3.0228065e-09
1.2368774e-11
3.0228149e-09
-1.1532429e-11
3.0227865e-09
1.1255283e-11
3.0228008e-09
-1.0447716e-11
3.022779e-09
1.0006874e-11
3.0227953e-09
-9.3959519e-12
3.022777e-09
8.9312906e-12
3.0227932e-09
-8.4344592e-12
3.0227769e-09
7.999572e-12
3.0227923e-09
-7.5760397e-12
3.0227773e-09
7.1851971e-12
3.0227917e-09
-6.8170865e-12
3.0227778e-09
6.4712767e-12
3.0227914e-09
-6.1495378e-12
3.0227783e-09
5.8457956e-12
3.022791e-09
-5.5644479e-12
3.0227787e-09
5.2989286e-12
3.0227908e-09
-5.0535648e-12
3.0227791e-09
4.8224884e-12
3.0227905e-09
-4.6093777e-12
3.0227794e-09
4.4093673e-12
3.0227903e-09
-4.2253618e-12
3.0227797e-09
4.0533852e-12
3.0227901e-09
-3.8957954e-12
3.0227799e-09
3.7493319e-12
3.0227899e-09
-3.6157873e-12
3.0227801e-09
3.4925799e-12
3.0227898e-09
-3.3811207e-12
3.0227803e-09
3.2792352e-12
3.0227897e-09
-3.1881895e-12
3.0227805e-09
3.1058279e-12
3.0227896e-09
-3.0337107e-12
3.0227807e-09
2.9703256e-12
3.0227892e-09
-2.9092819e-12
3.02278e-09
2.8791473e-12
3.0227869e-09
-2.8188539e-12
3.0227814e-09
2.6767756e-12
3.0228106e-09
-3.4791903e-12
2.4391263e-12
2.9754835e-09
2.3697457e-08
3.0934504e-09
-2.4421822e-09
3.1275461e-09
1.2008308e-09
3.1322729e-09
-7.2919454e-11
3.1400017e-09
-2.0706823e-11
3.1435043e-09
1.6942773e-11
3.1426127e-09
1.8486092e-11
3.1444691e-09
2.1395908e-12
3.1439029e-09
-8.3266675e-12
3.144344e-09
1.0061019e-11
3.1442439e-09
-1.2213577e-11
3.144305e-09
1.2307703e-11
3.1442451e-09
-1.1472511e-11
3.1442822e-09
1.1218125e-11
3.1442352e-09
-1.0400635e-11
3.1442718e-09
9.9701914e-12
3.1442331e-09
-9.3572029e-12
3.1442671e-09
8.8973116e-12
3.1442338e-09
-8.4012302e-12
3.1442644e-09
7.969059e-12
3.1442354e-09
-7.5470468e-12
3.1442625e-09
7.1581162e-12
3.144237e-09
-6.7916083e-12
3.1442609e-09
6.4473313e-12
3.1442385e-09
-6.1270837e-12
3.1442596e-09
5.8246398e-12
3.1442398e-09
-5.5446126e-12
3.1442585e-09
5.2802181e-12
3.1442409e-09
-5.0360094e-12
3.1442575e-09
4.8059081e-12
3.1442419e-09
-4.5937965e-12
3.1442567e-09
4.3946316e-12
3.1442428e-09
-4.2114829e-12
3.144256e-09
4.04023e-12
3.1442435e-09
-3.8833715e-12
3.1442553e-09
3.7375248e-12
3.1442441e-09
-3.6045917e-12
3.1442548e-09
3.4818991e-12
3.1442447e-09
-3.3709437e-12
3.1442544e-09
3.2694725e-12
3.1442451e-09
-3.1788286e-12
3.1442541e-09
3.0967749e-12
3.1442454e-09
-3.0249706e-12
3.1442539e-09
2.9617545e-12
3.1442454e-09
-2.9007446e-12
3.1442531e-09
2.8714871e-12
3.1442435e-09
-2.8092767e-12
3.1442535e-09
2.6667335e-12
3.144261e-09
-3.4866854e-12
2.4117193e-12
3.1088525e-09
2.3536855e-08
3.1968155e-09
-2.5301452e-09
3.2431292e-09
1.1545171e-09
3.248183e-09
-7.7973265e-11
3.2559802e-09
-2.8503956e-11
3.2592935e-09
1.3629428e-11
3.2585992e-09
1.9180434e-11
3.2604825e-09
2.5629803e-13
3.2598071e-09
-7.6513142e-12
3.260328e-09
9.5401577e-12
3.2601504e-09
-1.2036018e-11
3.2602807e-09
1.2177375e-11
3.2601551e-09
-1.1346926e-11
3.2602556e-09
1.1117709e-11
3.2601494e-09
-1.0294469e-11
3.2602425e-09
9.8770817e-12
3.2601507e-09
-9.2654e-12
3.2602351e-09
8.8129352e-12
3.2601542e-09
-8.3203752e-12
3.2602299e-09
7.8933847e-12
3.2601581e-09
-7.4752599e-12
3.2602258e-09
7.0904507e-12
3.2601618e-09
-6.7276047e-12
3.2602223e-09
6.3868127e-12
3.2601651e-09
-6.0698584e-12
3.2602193e-09
5.7704264e-12
3.260168e-09
-5.4932951e-12
3.2602167e-09
5.2315227e-12
3.2601705e-09
-4.9898448e-12
3.2602144e-09
4.7620215e-12
3.2601727e-09
-4.5521041e-12
3.2602124e-09
4.3549126e-12
3.2601746e-09
-4.1736527e-12
3.2602107e-09
4.0040926e-12
3.2601762e-09
-3.8488506e-12
3.2602093e-09
3.704447e-12
3.2601776e-09
-3.572875e-12
3.2602081e-09
3.4513919e-12
3.2601787e-09
-3.3415668e-12
3.2602071e-09
3.2410855e-12
3.2601796e-09
-3.1513558e-12
3.2602063e-09
3.0700772e-12
3.2601803e-09
-2.9989929e-12
3.2602058e-09
2.9363058e-12
3.2601807e-09
-2.8756966e-12
3.2602048e-09
2.847445e-12
3.2601793e-09
-2.7837665e-12
3.2602043e-09
2.6416994e-12
3.2601905e-09
-3.4729068e-12
2.3712473e-12
3.2213792e-09
2.3263725e-08
3.2961204e-09
-2.6048864e-09
3.3536524e-09
1.0969851e-09
3.3591078e-09
-8.3428651e-11
3.3665434e-09
-3.5939517e-11
3.3695941e-09
1.0578674e-11
3.3691426e-09
1.9631937e-11
3.3709625e-09
-1.5636143e-12
3.370194e-09
-6.8827568e-12
3.3707902e-09
8.9438718e-12
3.3705371e-09
-1.1782877e-11
3.3707337e-09
1.1980761e-11
3.3705452e-09
-1.1158389e-11
3.3707064e-09
1.0956469e-11
3.3705436e-09
-1.0131642e-11
3.3706909e-09
9.7297491e-12
3.3705482e-09
-9.1226754e-12
3.370681e-09
8.6801416e-12
3.3705544e-09
-8.1937813e-12
3.3706735e-09
7.7743213e-12
3.3705606e-09
-7.3623584e-12
3.3706672e-09
6.9837854e-12
3.3705662e-09
-6.6265753e-12
3.3706619e-09
6.2911401e-12
3.3705712e-09
-5.9792044e-12
3.3706572e-09
5.684427e-12
3.3705756e-09
-5.4117019e-12
3.3706532e-09
5.1539879e-12
3.3705795e-09
-4.9161575e-12
3.3706496e-09
4.6918617e-12
3.3705828e-09
-4.4852831e-12
3.3706466e-09
4.2911464e-12
3.3705857e-09
-4.112764e-12
3.370644e-09
3.9458268e-12
3.3705882e-09
-3.7930483e-12
3.3706417e-09
3.6508796e-12
3.3705902e-09
-3.5213872e-12
3.3706399e-09
3.4017808e-12
3.370592e-09
-3.2936862e-12