/*--------------------------------*- C++ -*----------------------------------*\
| =========                 |                                                 |
| \\      /  F ield         | OpenFOAM: The Open Source CFD Toolbox           |
|  \\    /   O peration     | Version:  2312                                  |
|   \\  /    A nd           | Website:  www.openfoam.com                      |
|    \\/     M anipulation  |                                                 |
\*---------------------------------------------------------------------------*/
FoamFile
{
    version     2.0;
    format      ascii;
    arch        "LSB;label=32;scalar=64";
    class       volScalarField;
    location    "3";
    object      T;
}
// * * * * * * * * * * * * * * * * * * * * * * * * * * * * * * * * * * * * * //

dimensions      [0 0 0 1 0 0 0];

internalField   nonuniform List<scalar> 
4000
(
329.77601
328.57793
328.38967
328.31113
328.25495
328.20265
328.16173
328.11881
328.08413
328.04567
328.01389
327.97811
327.94797
327.91398
327.8849
327.85219
327.82381
327.79206
327.76419
327.73317
327.70569
327.67523
327.64805
327.61804
327.59111
327.56147
327.53475
327.50539
327.47886
327.44974
327.42336
327.39443
327.36821
327.33942
327.31335
327.28467
327.25875
327.23015
327.20437
327.17582
327.15019
327.12166
327.09619
327.06765
327.04237
327.01378
326.98873
326.95999
326.93536
326.90586
331.85127
329.79172
329.2859
329.10244
328.98624
328.88163
328.81105
328.73454
328.68267
328.61955
328.57635
328.52124
328.48299
328.43326
328.39816
328.35226
328.3193
328.27624
328.24482
328.20394
328.17368
328.13451
328.10515
328.06733
328.03871
328.00199
327.974
327.93814
327.9107
327.87554
327.8486
327.81399
327.78753
327.75334
327.72733
327.69347
327.66789
327.63427
327.60913
327.57566
327.55097
327.51756
327.49335
327.45992
327.43626
327.40268
327.37971
327.34569
327.32396
327.28775
333.17233
330.96779
330.17539
329.88979
329.71464
329.55849
329.4584
329.34872
329.27965
329.19213
329.13748
329.06324
329.01682
328.9515
328.91033
328.85136
328.81376
328.75951
328.72448
328.67384
328.64075
328.59294
328.56136
328.51579
328.48546
328.44169
328.41241
328.37008
328.34173
328.30055
328.27304
328.23278
328.20605
328.1665
328.14053
328.10152
328.07627
328.03765
328.01313
327.97475
327.95099
327.91273
327.88976
327.85146
327.8294
327.79084
327.76993
327.73065
327.71179
327.66915
334.06883
332.07123
331.04717
330.66725
330.43599
330.2302
330.10123
329.9593
329.87319
329.76186
329.69577
329.60282
329.54819
329.4676
329.4203
329.34852
329.30622
329.24097
329.20227
329.14204
329.10606
329.04975
329.0159
328.9627
328.9306
328.87989
328.84928
328.80057
328.77127
328.72415
328.69603
328.65018
328.62317
328.5783
328.55234
328.50822
328.48329
328.4397
328.4158
328.37255
328.3497
328.30661
328.28487
328.24173
328.22124
328.17775
328.15887
328.11438
328.09829
328.04962
334.7046
333.0712
331.88701
331.42667
331.1446
330.89256
330.73607
330.56349
330.46079
330.32664
330.24926
330.13829
330.07549
329.98014
329.92669
329.84248
329.79544
329.71952
329.6771
329.60753
329.56861
329.50401
329.46785
329.40719
329.37329
329.31579
329.28381
329.22884
329.19855
329.1456
329.11685
329.0655
329.03817
328.98807
328.9621
328.91295
328.88831
328.83982
328.8165
328.76845
328.74648
328.69862
328.67807
328.63015
328.61121
328.56284
328.54592
328.49633
328.48284
328.42863
335.16999
333.94657
332.67963
332.15833
331.83352
331.54038
331.35871
331.15785
331.03943
330.88388
330.7956
330.66758
330.59677
330.48738
330.42784
330.33177
330.28
330.19384
330.14769
330.06914
330.02726
329.95467
329.91616
329.84829
329.81255
329.74846
329.71508
329.65402
329.62273
329.56409
329.53468
329.47795
329.4503
329.39507
329.36908
329.31498
329.29061
329.23732
329.21456
329.16179
329.14067
329.08813
329.06873
329.01612
328.99866
328.94553
328.93048
328.87594
328.86483
328.8056
335.51823
334.68549
333.41077
332.85188
332.49508
332.16777
331.96433
331.73839
331.60564
331.4306
331.33208
331.1883
331.10983
330.98734
330.9219
330.81469
330.75827
330.66245
330.61261
330.52554
330.48072
330.4005
330.35965
330.28488
330.2473
330.17688
330.1421
330.07518
330.04286
329.97873
329.94864
329.88672
329.85871
329.7985
329.77247
329.71357
329.68944
329.63148
329.60924
329.55188
329.53156
329.47447
329.45617
329.399
329.38294
329.32519
329.31189
329.25261
329.24362
329.17987
335.78348
335.2867
334.06905
333.4973
333.1214
332.76848
332.54775
332.30078
332.15562
331.96349
331.85574
331.69783
331.61226
331.47784
331.40682
331.28935
331.2285
331.12371
331.07031
330.97527
330.92758
330.8402
330.79706
330.71577
330.67638
330.59996
330.56379
330.49128
330.45795
330.38855
330.3578
330.29088
330.26252
330.19753
330.17143
330.1079
330.084
330.02152
329.99978
329.93798
329.91843
329.85694
329.83968
329.77811
329.76336
329.70118
329.6895
329.62572
329.61854
329.5508
335.98874
335.75737
334.64701
334.08601
333.70511
333.33631
333.10374
332.84051
332.68543
332.4791
332.36345
332.19335
332.10147
331.95653
331.88043
331.75376
331.68878
331.57585
331.5191
331.41677
331.36636
331.27237
331.22703
331.13968
331.09856
331.01651
330.97901
330.90123
330.86693
330.79256
330.76117
330.6895
330.6608
330.59124
330.56509
330.49713
330.47345
330.40664
330.38539
330.31932
330.3005
330.2348
330.21851
330.15274
330.13922
330.07283
330.06259
329.99464
329.98896
329.91768
336.15019
336.1115
335.14175
334.61172
334.23989
333.86557
333.62727
333.35317
333.19115
332.97392
332.85205
332.67199
332.57482
332.42097
332.34045
332.20581
332.13716
332.01705
331.95726
331.84841
331.7955
331.69552
331.64817
331.55527
331.51254
331.42531
331.38658
331.30391
331.26871
331.18969
331.1577
331.08158
331.05257
330.97871
330.95253
330.88039
330.85692
330.78602
330.76522
330.69512
330.67699
330.6073
330.59192
330.52218
330.50978
330.43944
330.43049
330.3587
330.35421
330.27981
336.27953
336.36717
335.55459
335.07103
334.72108
334.35149
334.11391
333.83467
333.66907
333.44454
333.31843
333.13091
333.0297
332.86875
332.78464
332.6434
332.57165
332.44544
332.38302
332.26851
332.21342
332.10816
332.05901
331.96116
331.917
331.8251
331.78526
331.69814
331.66214
331.57886
331.54635
331.46611
331.43685
331.359
331.33281
331.25676
331.23352
331.15879
331.13844
331.06457
331.04709
330.97367
330.95913
330.8857
330.87429
330.80033
330.79247
330.71722
330.71363
330.63651
336.38532
336.54422
335.89063
335.4636
335.14592
334.79054
334.56004
334.28147
334.11589
333.88788
333.75973
333.5674
333.4636
333.29751
333.21079
333.06445
332.99031
332.85917
332.79465
332.67542
332.61853
332.50878
332.45814
332.35599
332.31063
332.2146
332.17385
332.08275
332.0461
331.95897
331.92605
331.84207
331.81264
331.73113
331.70498
331.62535
331.60236
331.52411
331.50419
331.42685
331.40998
331.33313
331.31936
331.24255
331.23203
331.15477
331.14782
331.06951
331.06658
330.98706
336.47373
336.6621
336.15777
335.79193
335.51379
335.1807
334.96313
334.69083
334.52888
334.30124
334.1734
333.97903
333.87422
333.70505
333.61685
333.46699
333.39127
333.25645
333.19044
333.06752
333.0093
332.8959
332.84413
332.73839
332.69212
332.59257
332.55113
332.45658
332.41945
332.32893
332.29575
332.20844
332.17894
332.09415
332.06811
331.98526
331.96255
331.88111
331.86164
331.78115
331.76487
331.68491
331.67184
331.592
331.58224
331.50206
331.49585
331.41488
331.41239
331.33081
336.54931
336.73837
336.36563
336.06082
335.82618
335.52155
335.32189
335.06091
334.90607
334.68251
334.55736
334.36371
334.25957
334.08941
334.00095
333.84921
333.77282
333.63565
333.56883
333.44329
333.38427
333.26811
333.21563
333.10705
333.06022
332.95779
332.91592
332.81849
332.7811
332.68769
332.65441
332.56422
332.53477
332.44712
332.42128
332.33558
332.31321
332.22895
332.20994
332.12667
332.11094
332.02825
332.01581
331.9333
331.92421
331.84149
331.83586
331.75263
331.75043
331.66707
336.61514
336.78743
336.52446
336.27676
336.08644
335.81429
335.63631
335.39093
335.24629
335.03026
334.91009
334.71982
334.61803
334.44898
334.36151
334.20955
334.13345
333.99526
333.92839
333.80133
333.74211
333.6241
333.5714
333.46077
333.41373
333.30912
333.26713
333.16741
333.12999
333.03424
333.00104
332.90846
332.87919
332.78913
332.76359
332.67547
332.65349
332.56682
332.54828
332.46263
332.44744
332.3624
332.35054
332.26576
332.25723
332.17238
332.16719
332.08209
332.08006
331.99522
336.67351
336.82043
336.64429
336.44719
336.29938
336.06151
335.90764
335.68116
335.54928
335.34377
335.23067
335.04625
334.94845
334.78249
334.69729
334.54672
334.47191
334.33402
334.26788
334.14041
334.08163
333.96272
333.91029
333.79842
333.7516
333.6455
333.60373
333.50234
333.46517
333.36762
333.33471
333.24025
333.21134
333.11934
333.09421
333.00411
332.9826
332.89394
332.87591
332.78827
332.77363
332.68665
332.67532
332.58867
332.58062
332.49405
332.4892
332.40263
332.40068
332.31464
336.72587
336.84505
336.73424
336.57986
336.47075
336.26694
336.13823
335.93286
335.81565
335.62311
335.51885
335.34246
335.25015
335.08912
335.0074
334.85977
334.78722
334.65094
334.58632
334.45954
334.40183
334.28296
334.23134
334.11904
334.07288
333.966
333.92479
333.82238
333.78574
333.68698
333.65459
333.55878
333.53039
333.43694
333.41235
333.32074
333.29978
333.20957
333.1921
333.10291
333.0888
333.00031
332.98948
332.9014
332.89375
332.80588
332.80127
332.71361
332.7117
332.62474
336.77329
336.86626
336.80213
336.68226
336.60674
336.43514
336.33132
336.14816
336.0468
335.86904
335.77504
335.60849
335.52296
335.36849
335.29137
335.14808
335.07874
334.94527
334.88297
334.75792
334.70194
334.58402
334.53375
334.42182
334.37676
334.26982
334.22955
334.12675
334.09095
333.99155
333.95993
333.8633
333.83563
333.74122
333.71732
333.62467
333.60435
333.51306
333.49619
333.4059
333.39234
333.30277
333.29241
333.20332
333.19603
333.10727
333.10285
333.01447
333.01256
332.92499
336.81646
336.88676
336.85433
336.7612
336.71353
336.5711
336.49081
336.32993
336.24487
336.08302
336.00026
335.84493
335.76724
335.6207
335.54914
335.41145
335.34617
335.21663
335.15737
335.03504
334.98141
334.86532
334.81692
334.70614
334.66262
334.55632
334.51736
334.41481
334.38014
334.28069
334.25008
334.15318
334.12641
334.03158
334.00849
333.91529
333.89571
333.80381
333.78759
333.69666
333.68367
333.59347
333.58357
333.49389
333.48693
333.39769
333.39342
333.30468
333.30278
333.21489
336.85592
336.90776
336.89571
336.8225
336.7969
336.67987
336.62093
336.48151
336.41251
336.26705
336.19604
336.0529
335.98381
335.84626
335.78108
335.65002
335.58955
335.46491
335.40936
335.29064
335.23995
335.12648
335.08047
334.97157
334.93002
334.82503
334.78774
334.68606
334.65282
334.5539
334.52453
334.4279
334.40224
334.30747
334.28535
334.19209
334.17336
334.0813
334.06581
333.97468
333.9623
333.87189
333.86246
333.77263
333.76597
333.67664
333.67251
333.58377
333.58188
333.49398
336.89203
336.92947
336.92982
336.87093
336.86201
336.76635
336.72601
336.60654
336.55279
336.42359
336.36442
336.23395
336.17392
336.04611
335.9879
335.8643
335.80925
335.69034
335.63908
335.52475
335.47751
335.36741
335.32422
335.21789
335.17871
335.07567
335.04038
334.94016
334.90864
334.8108
334.78292
334.68708
334.6627
334.56851
334.5475
334.45465
334.43687
334.34512
334.33043
334.23955
334.2278
334.13763
334.12868
334.0391
334.03274
333.94372
333.93974
333.85134
333.84946
333.76187
336.92513
336.95161
336.95908
336.91016
336.91322
336.83497
336.81024
336.70874
336.66894
336.55538
336.50771
336.39
336.3392
336.22156
336.17069
336.05515
336.00598
335.89343
335.84692
335.73764
335.69429
335.58819
335.54825
335.4451
335.40863
335.30812
335.27514
335.17694
335.1474
335.05117
335.02499
334.93045
334.90753
334.8144
334.79463
334.70267
334.68594
334.59495
334.58112
334.49093
334.47987
334.39035
334.38189
334.29296
334.28693
334.19858
334.19475
334.10703
334.1052
334.01823
336.95548
336.97372
336.98506
336.94293
336.95411
336.88964
336.8775
336.7917
336.76428
336.66529
336.62846
336.52323
336.48152
336.3742
336.33082
336.2237
336.18069
336.07498
336.03357
335.92985
335.89075
335.78919
335.75281
335.65337
335.61994
335.52247
335.49208
335.39639
335.36907
335.27494
335.25066
335.15789
335.13659
335.04498
335.02659
334.93595
334.92037
334.83057
334.81767
334.72859
334.71825
334.62978
334.62186
334.53396
334.52827
334.44095
334.4373
334.35058
334.34881
334.26279
336.98332
336.99534
337.00869
336.97114
336.98744
336.9336
336.93123
336.85881
336.84198
336.75624
336.72933
336.63596
336.60297
336.50582
336.46989
336.37132
336.33459
336.23602
336.19992
336.10214
336.06754
335.97094
335.93839
335.8431
335.81294
335.71898
335.6914
335.59868
335.57377
335.48219
335.45998
335.36941
335.34988
335.26021
335.24331
335.15442
335.14007
335.05186
335.03997
334.95238
334.94282
334.85578
334.84842
334.76192
334.75659
334.67064
334.66719
334.5818
334.58011
334.49533
337.00888
337.01612
337.03049
336.99609
337.0153
336.96949
336.97437
336.91306
336.90502
336.83103
336.81294
336.73059
336.70574
336.61839
336.58965
336.49957
336.46909
336.37778
336.34707
336.25548
336.22552
336.13419
336.10564
336.01486
335.98816
335.89807
335.87347
335.78411
335.76177
335.67313
335.65312
335.56516
335.54751
335.46017
335.44486
335.3581
335.34506
335.25883
335.24799
335.16226
335.15352
335.06827
335.0615
334.97673
334.97181
334.88753
334.88432
334.80055
334.79897
334.71573
337.03235
337.03581
337.05073
337.01859
337.03916
336.99933
337.00934
336.95707
336.95608
336.89227
336.8818
336.80948
336.79202
336.71391
336.69197
336.61012
336.58572
336.50163
336.47627
336.39097
336.3657
336.27984
336.25539
336.16938
336.14624
336.06032
336.03882
335.95314
335.93349
335.84812
335.83043
335.74541
335.72974
335.64508
335.63143
335.54713
335.53548
335.45156
335.44183
335.35829
335.35042
335.26726
335.26114
335.1784
335.17391
335.0916
335.08865
335.00678
335.00533
334.92391
337.05393
337.05429
337.06953
337.03916
337.06005
337.02465
337.03808
336.99302
336.99748
336.94234
336.93826
336.87486
336.86398
336.79439
336.77874
336.70472
336.6861
336.60905
336.5889
336.50986
336.48923
336.40893
336.38858
336.3075
336.28797
336.20645
336.18811
336.10636
336.08946
336.00764
335.99233
335.91055
335.89691
335.81523
335.8033
335.72179
335.71155
335.63025
335.62168
335.54062
335.53365
335.45288
335.44743
335.367
335.36298
335.2829
335.28025
335.20053
335.19922
335.11989
337.07378
337.07153
337.08696
337.05809
337.07866
337.04656
337.06207
337.0227
337.03121
336.98329
336.98444
336.92884
336.92364
336.86179
336.8518
336.78511
336.77187
336.70158
336.68638
336.61348
336.59735
336.52259
336.50628
336.43021
336.41426
336.33727
336.3221
336.24447
336.23034
336.15229
336.13939
336.06108
336.04951
335.97106
335.96088
335.8824
335.87362
335.79519
335.7878
335.70949
335.70345
335.62532
335.62057
335.54269
335.53916
335.46156
335.45921
335.3819
335.38073
335.30373
337.09204
337.08754
337.10306
337.07553
337.09542
337.06582
337.08244
337.0475
337.05889
337.01691
337.02218
336.9733
336.97289
336.91795
336.91296
336.85301
336.84466
336.78074
336.77017
336.7032
336.69133
336.62204
336.60961
336.53855
336.5261
336.45371
336.44165
336.36826
336.35688
336.28275
336.27225
336.1976
336.18809
336.11308
336.10466
336.02942
336.02211
335.94676
335.94057
335.86522
335.86012
335.78486
335.78082
335.7057
335.70269
335.62777
335.62575
335.55104
335.55004
335.47557
337.10883
337.10236
337.11785
337.09158
337.11061
337.08297
337.09999
337.0685
337.0818
337.04465
337.05308
337.00988
337.01343
336.96456
336.96388
336.91003
336.90606
336.84806
336.84173
336.78038
336.77251
336.7085
336.69976
336.63362
336.62453
336.55674
336.54769
336.47859
336.46989
336.39979
336.39163
336.32076
336.3133
336.24186
336.23518
336.16335
336.1575
336.08542
336.08042
336.00821
336.00406
335.93183
335.92852
335.85635
335.85386
335.7818
335.78012
335.7082
335.70736
335.63561
337.12426
337.11603
337.13137
337.1063
337.12439
337.09834
337.1153
337.08651
337.10098
337.06771
337.07847
337.04003
337.04673
337.00313
337.00609
336.9577
336.95755
336.90499
336.90246
336.8464
336.84218
336.78322
336.77791
336.71657
336.71064
336.64738
336.6412
336.57639
336.57026
336.50421
336.49833
336.43132
336.42584
336.35808
336.3531
336.28479
336.28037
336.21168
336.20786
336.13893
336.13572
336.06667
336.06408
335.99499
335.99303
335.92398
335.92265
335.85366
335.85299
335.78412
337.1384
337.1286
337.14366
337.11972
337.13686
337.11216
337.12877
337.10211
337.11719
337.08704
337.09942
337.06494
337.07409
337.03501
337.04096
336.9974
337.00052
336.95289
336.95371
336.90254
336.90162
336.84742
336.84525
336.78851
336.78552
336.72667
336.72318
336.66259
336.65889
336.59689
336.59317
336.53004
336.52645
336.46243
336.45908
336.39437
336.39134
336.32612
336.32345
336.25789
336.25561
336.18983
336.18796
336.12207
336.12063
336.05469
336.05371
335.98778
335.98728
335.92141
337.15131
337.14009
337.15475
337.13187
337.14809
337.12458
337.14066
337.11573
337.13101
337.10338
337.11683
337.0856
337.0966
337.06135
337.0697
337.03036
337.03622
336.99301
336.99673
336.95003
336.95202
336.90228
336.90293
336.85056
336.85024
336.79564
336.79463
336.73817
336.73672
336.67871
336.67702
336.61774
336.61594
336.55566
336.55386
336.49277
336.49106
336.42937
336.42779
336.36567
336.36428
336.30184
336.30067
336.23804
336.23712
336.17438
336.17373
336.11094
336.11061
336.04784
337.16303
337.15052
337.16467
337.14278
337.15812
337.13569
337.15117
337.12768
337.14288
337.11728
337.13136
337.10283
337.11514
337.08314
337.09336
337.05768
337.06577
337.0265
337.03265
336.99003
336.99453
336.94891
336.95205
336.90379
336.90586
336.85531
336.85655
336.80406
336.80467
336.75055
336.75072
336.69525
336.6951
336.63852
336.63817
336.5807
336.58023
336.52207
336.52153
336.46285
336.46231
336.40325
336.40275
336.34343
336.343
336.2835
336.28318
336.22359
336.22342
336.1638
337.17354
337.15987
337.17341
337.15247
337.16698
337.14556
337.16041
337.13815
337.1531
337.12919
337.14357
337.11726
337.13045
337.1012
337.11281
337.08029
337.09016
337.05435
337.06252
337.02357
337.03019
336.98835
336.99364
336.94921
336.95337
336.90666
336.90988
336.86119
336.86366
336.8133
336.81516
336.76338
336.76475
336.7118
336.71278
336.65888
336.65955
336.60489
336.60533
336.55008
336.55034
336.49465
336.49477
336.43876
336.4388
336.38257
336.38256
336.32618
336.32617
336.26973
337.1828
337.16812
337.18101
337.16096
337.1747
337.15425
337.16847
337.14733
337.16191
337.13942
337.15385
337.1294
337.14313
337.11619
337.1288
337.099
337.11023
337.07747
337.08724
337.05157
337.05996
337.02156
337.02866
336.98776
336.99372
336.9506
336.95555
336.91047
336.91457
336.86779
336.87116
336.82294
336.82567
336.77625
336.77844
336.72802
336.72974
336.67852
336.67984
336.62799
336.62898
336.57663
336.57733
336.52462
336.52509
336.4721
336.47239
336.41922
336.41935
336.3661
337.1907
337.1752
337.18745
337.16827
337.18133
337.16181
337.17544
337.15531
337.16947
337.14821
337.16253
337.13964
337.15365
337.12866
337.14194
337.11448
337.1267
337.0966
337.10762
337.07487
337.08466
337.04938
337.05797
337.02032
337.02778
336.98799
336.99442
336.95272
336.95823
336.91486
336.91953
336.87473
336.87865
336.83264
336.83589
336.78885
336.7915
336.74363
336.74576
336.69721
336.69887
336.6498
336.65103
336.60156
336.60243
336.55265
336.5532
336.50322
336.50348
336.45338
337.19709
337.1811
337.19276
337.17444
337.1869
337.16828
337.18138
337.16219
337.17591
337.15575
337.16984
337.1483
337.16238
337.13906
337.15273
337.12728
337.14019
337.11241
337.12435
337.09419
337.10506
337.07257
337.08235
337.04766
337.05635
337.01963
337.02729
336.98874
336.99543
336.95527
336.96105
336.91949
336.92444
336.88167
336.88585
336.84206
336.84553
336.8009
336.80372
336.7584
336.76064
336.71476
336.71647
336.67016
336.67139
336.62476
336.62554
336.57868
336.57907
336.53207
337.20188
337.18579
337.19696
337.17953
337.19146
337.17375
337.18635
337.16807
337.18134
337.16218
337.17597
337.15562
337.16961
337.14774
337.16157
337.13787
337.1512
337.12545
337.13802
337.11014
337.12181
337.09182
337.1025
337.07049
337.08014
337.04624
337.05487
337.01926
337.0269
336.98975
336.99644
336.95794
336.96374
336.92406
336.92901
336.88833
336.89249
336.85096
336.85439
336.81217
336.81491
336.77212
336.77424
336.73101
336.73255
336.68897
336.68997
336.64615
336.64664
336.60267
337.20504
337.18931
337.20013
337.1836
337.1951
337.17826
337.19042
337.17301
337.18586
337.16763
337.18107
337.16177
337.17558
337.15497
337.1688
337.1466
337.16013
337.13615
337.14911
337.12325
337.13545
337.1077
337.11902
337.08943
337.09979
337.06847
337.07784
337.04492
337.05331
337.01894
337.02637
336.99072
336.99721
336.96044
336.96603
336.92828
336.93302
336.89445
336.89838
336.85912
336.86229
336.82247
336.82494
336.78466
336.78646
336.74584
336.74701
336.70614
336.70671
336.66568
337.20672
337.19175
337.20234
337.18674
337.19787
337.1819
337.19367
337.1771
337.18955
337.17218
337.18525
337.16693
337.18045
337.16096
337.17466
337.15379
337.16734
337.14491
337.15804
337.13396
337.14646
337.1207
337.13243
337.10501
337.11586
337.08687
337.09678
337.06632
337.07526
337.04347
337.05144
337.01845
337.02547
336.99141
336.99751
336.96252
336.96772
336.93194
336.93628
336.89983
336.90336
336.86635
336.86911
336.83166
336.83368
336.79588
336.79721
336.75916
336.75981
336.7216
337.20719
337.19326
337.20372
337.18905
337.19988
337.18476
337.19617
337.18042
337.19248
337.17594
337.18863
337.17119
337.18439
337.1659
337.17936
337.15966
337.17308
337.15202
337.16514
337.14263
337.15524
337.13124
337.14318
337.11771
337.12884
337.10195
337.1122
337.08398
337.09329
337.06386
337.07222
337.04167
337.04908
337.01755
337.02401
336.99161
336.99715
336.96399
336.96865
336.93485
336.93865
336.90432
336.9073
336.87253
336.87473
336.83962
336.84107
336.80572
336.80643
336.77091
337.20682
337.19404
337.20441
337.19064
337.20121
337.18691
337.19799
337.18303
337.19472
337.17898
337.19129
337.17467
337.1875
337.16992
337.18305
337.16439
337.17757
337.15771
337.17069
337.14955
337.16211
337.13967
337.15164
337.1279
337.13913
337.11414
337.12455
337.09836
337.10788
337.08059
337.08918
337.06089
337.06854
337.03934
337.04605
337.01605
337.02183
336.99112
336.996
336.96469
336.96868
336.93687
336.94001
336.90778
336.91011
336.87755
336.87909
336.84629
336.84705
336.81409
337.20594
337.19427
337.20454
337.19163
337.20196
337.18845
337.19923
337.18503
337.19636
337.18137
337.19329
337.17745
337.18987
337.17312
337.18587
337.16814
337.18098
337.16218
337.17488
337.15496
337.16732
337.14626
337.15811
337.13591
337.14709
337.12379
337.13421
337.10985
337.11943
337.09409
337.10278
337.07654
337.08431
337.05726
337.0641
337.03632
337.04223
337.0138
337.01881
336.98982
336.99394
336.96448
336.96774
336.93789
336.9403
336.91014
336.91173
336.88135
336.88214
336.8516
337.20482
337.19412
337.20424
337.19213
337.20224
337.18947
337.19995
337.18647
337.19746
337.18318
337.19471
337.17959
337.19158
337.17559
337.1879
337.171
337.18343
337.16556
337.17789
337.15905
337.17109
337.15125
337.16284
337.14201
337.15301
337.13122
337.1415
337.11879
337.12829
337.10473
337.11338
337.08902
337.09679
337.0717
337.07857
337.05282
337.05879
337.03246
337.03752
337.01069
337.01487
336.9876
336.99091
336.96328
336.96574
336.93783
336.93945
336.91132
336.91213
336.88386
337.20361
337.19372
337.20364
337.19224
337.20212
337.19004
337.20024
337.18744
337.19808
337.18448
337.1956
337.18114
337.19269
337.17738
337.18922
337.17306
337.185
337.16797
337.17985
337.16194
337.17357
337.1548
337.16604
337.14641
337.15711
337.13666
337.14671
337.12547
337.13478
337.1128
337.12131
337.09865
337.10632
337.08302
337.08983
337.06595
337.07188
337.04748
337.05253
337.02768
337.03186
337.00662
337.00994
336.98438
336.98685
336.96102
336.96266
336.93663
336.93745
336.91129
337.2024
337.19316
337.20282
337.19205
337.20168
337.19024
337.20015
337.18798
337.19828
337.1853
337.196
337.18216
337.19323
337.17855
337.18986
337.17436
337.18577
337.16947
337.18082
337.16374
337.17488
337.15705
337.16784
337.14928
337.15959
337.14032
337.15003
337.13011
337.13913
337.11858
337.12686
337.10573
337.11321
337.09154
337.0982
337.07602
337.08184
337.05922
337.06419
337.04117
337.04529
337.02193
337.02521
337.00155
337.004
336.98011
336.98174
336.95767
336.95847
336.93428
337.20117
337.1925
337.20184
337.19162
337.201
337.19014
337.19975
337.18817
337.19811
337.18568
337.19596
337.18267
337.19323
337.1791
337.18986
337.17493
337.18577
337.1701
337.18088
337.16452
337.17511
337.1581
337.16837
337.15074
337.16058
337.14237
337.15166
337.1329
337.14156
337.12229
337.13026
337.1105
337.11773
337.09752
337.10397
337.08334
337.089
337.06798
337.07283
337.05147
337.0555
337.03385
337.03706
337.01516
337.01756
336.99545
336.99705
336.97478
336.97558
336.9532
337.19993
337.19176
337.20075
337.19102
337.20012
337.18979
337.19909
337.18803
337.19759
337.18567
337.19548
337.18267
337.1927
337.17905
337.18921
337.17479
337.185
337.16989
337.18004
337.16431
337.17429
337.158
337.16769
337.15089
337.16019
337.14291
337.15172
337.134
337.14224
337.1241
337.13171
337.11318
337.12009
337.1012
337.10739
337.08816
337.09359
337.07405
337.07871
337.05888
337.06277
337.04269
337.0458
337.02551
337.02784
337.00737
337.00892
336.98831
336.98908
336.96838
337.19866
337.19096
337.19958
337.19027
337.19908
337.18923
337.19819
337.1876
337.19675
337.18526
337.19458
337.18217
337.19163
337.17838
337.18792
337.17392
337.18347
337.16883
337.17832
337.16312
337.17246
337.15679
337.16587
337.14978
337.15851
337.14204
337.15033
337.13352
337.14129
337.12417
337.13136
337.11393
337.12049
337.10278
337.10866
337.09069
337.09587
337.07765
337.08211
337.06366
337.06738
337.04874
337.05171
337.03289
337.03513
337.01616
337.01765
336.99857
336.99931
336.98014
337.19735
337.1901
337.19833
337.1894
337.19792
337.18848
337.19709
337.18688
337.19559
337.18445
337.19323
337.18115
337.18999
337.17707
337.18594
337.17229
337.18115
337.16691
337.1757
337.16097
337.16962
337.15449
337.16293
337.14746
337.15558
337.13983
337.14757
337.13157
337.13883
337.12261
337.12935
337.11291
337.11907
337.10243
337.10797
337.09114
337.09603
337.07901
337.08323
337.06604
337.06957
337.05222
337.05505
337.03757
337.03969
337.0221
337.02351
337.00583
337.00653
336.98877
337.19598
337.18919
337.19702
337.18844
337.19665
337.18756
337.19579
337.18589
337.1941
337.18322
337.19141
337.17957
337.18775
337.17507
337.18324
337.16986
337.178
337.16408
337.17216
337.15781
337.16577
337.1511
337.15887
337.14395
337.15145
337.13633
337.14348
337.1282
337.13494
337.11951
337.12578
337.11023
337.11597
337.10029
337.10547
337.08966
337.09424
337.07831
337.08226
337.06621
337.06953
337.05337
337.05603
337.03977
337.04178
337.02543
337.02677
337.01035
337.01102
336.99454
337.19454
337.18821
337.19566
337.18738
337.19528
337.18648
337.19428
337.18458
337.19225
337.18152
337.18906
337.17737
337.18483
337.17232
337.17974
337.16657
337.17397
337.1603
337.16765
337.15362
337.16087
337.1466
337.15369
337.13925
337.14611
337.13155
337.13812
337.12347
337.12968
337.11497
337.12075
337.10599
337.1113
337.09648
337.10128
337.08639
337.09065
337.0757
337.07939
337.06437
337.06746
337.05238
337.05487
337.03972
337.04159
337.02638
337.02763
337.01237
337.013
336.9977
337.19303
337.18717
337.19423
337.18623
337.19379
337.1852
337.19251
337.18292
337.18996
337.17929
337.18611
337.17447
337.18117
337.16874
337.17539
337.16235
337.16898
337.15552
337.16212
337.14836
337.1549
337.14097
337.14738
337.13336
337.13959
337.12552
337.1315
337.11743
337.12309
337.10903
337.11432
337.10027
337.10515
337.0911
337.09552
337.08147
337.0854
337.07134
337.07474
337.06066
337.06353
337.04942
337.05173
337.03759
337.03933
337.02515
337.02632
337.01212
337.0127
336.99847
337.19143
337.18606
337.19274
337.18499
337.19218
337.1837
337.19044
337.18083
337.18717
337.17642
337.18247
337.17077
337.17667
337.16424
337.17009
337.15713
337.16298
337.14966
337.15551
337.14198
337.14781
337.13418
337.13992
337.12627
337.13187
337.11825
337.12365
337.11009
337.11523
337.10174
337.10656
337.09315
337.0976
337.08425
337.08829
337.075
337.0786
337.06534
337.06847
337.05524
337.05787
337.04465
337.04678
337.03356
337.03516
337.02193
337.02301
337.00977
337.01031
336.99705
337.18973
337.18489
337.19118
337.18363
337.19039
337.18192
337.18799
337.17822
337.18375
337.17282
337.17801
337.16617
337.17122
337.15872
337.16375
337.15081
337.15587
337.14266
337.14777
337.13443
337.13956
337.12619
337.13128
337.11797
337.12296
337.10974
337.11458
337.10149
337.10611
337.09315
337.0975
337.08468
337.08871
337.07601
337.07968
337.06707
337.07035
337.05783
337.06068
337.04822
337.05063
337.03822
337.04017
337.02778
337.02926
337.01689
337.01788
337.00551
337.00601
336.99364
337.18791
337.18367
337.18955
337.18213
337.18838
337.17975
337.18502
337.17495
337.17958
337.16833
337.17261
337.16054
337.1647
337.15208
337.15627
337.14331
337.14759
337.13446
337.13884
337.12566
337.13011
337.11698
337.12144
337.10844
337.11285
337.1
337.1043
337.09164
337.09577
337.0833
337.0872
337.07492
337.07855
337.06643
337.06975
337.05778
337.06074
337.0489
337.05148
337.03974
337.04193
337.03025
337.03203
337.02041
337.02175
337.01017
337.01107
336.99952
336.99997
336.98842
337.18596
337.1824
337.18782
337.18043
337.18603
337.17708
337.18141
337.17087
337.17448
337.16281
337.16611
337.15374
337.15698
337.14419
337.14754
337.13454
337.13805
337.12498
337.12865
337.11563
337.11942
337.10652
337.11038
337.09767
337.10152
337.08904
337.09282
337.08057
337.08423
337.07222
337.0757
337.06392
337.06717
337.0556
337.05858
337.04719
337.04986
337.03864
337.04097
337.02988
337.03186
337.02086
337.02247
337.01156
337.01278
337.00192
337.00274
336.99192
336.99234
336.98154
337.18387
337.18111
337.18596
337.17846
337.18324
337.17374
337.17695
337.16578
337.16829
337.15609
337.15837
337.14563
337.14795
337.13497
337.13749
337.12442
337.12719
337.11418
337.11717
337.10429
337.10747
337.0948
337.09809
337.08567
337.089
337.07686
337.08016
337.06831
337.07153
337.05996
337.06304
337.05174
337.05462
337.04357
337.04623
337.03539
337.03778
337.02714
337.02924
337.01875
337.02053
337.01017
337.01162