/*--------------------------------*- C++ -*----------------------------------*\
| =========                 |                                                 |
| \\      /  F ield         | OpenFOAM: The Open Source CFD Toolbox           |
|  \\    /   O peration     | Version:  2312                                  |
|   \\  /    A nd           | Website:  www.openfoam.com                      |
|    \\/     M anipulation  |                                                 |
\*---------------------------------------------------------------------------*/
FoamFile
{
    version     2.0;
    format      ascii;
    arch        "LSB;label=32;scalar=64";
    class       volScalarField;
    location    "3";
    object      T;
}
// * * * * * * * * * * * * * * * * * * * * * * * * * * * * * * * * * * * * * //

dimensions      [0 0 0 1 0 0 0];

internalField   nonuniform List<scalar> 
4000
(
325.20567
324.06175
323.83302
323.76584
323.68913
323.63541
323.58364
323.53738
323.49266
323.45082
323.40924
323.36967
323.33004
323.29178
323.25352
323.2161
323.17884
323.142
323.10552
323.0691
323.03322
322.99711
322.96173
322.92583
322.89087
322.85514
322.82053
322.78493
322.75062
322.71511
322.68107
322.64562
322.61182
322.57641
322.54284
322.50745
322.47408
322.4387
322.40553
322.37012
322.33715
322.3017
322.26894
322.23341
322.20089
322.16521
322.13301
322.09704
322.06542
322.02828
327.13921
325.29659
324.68682
324.55149
324.38881
324.29455
324.20628
324.13444
324.06724
324.00864
323.95088
323.89909
323.84717
323.79931
323.75148
323.70615
323.66133
323.61775
323.57524
323.5329
323.49223
323.4508
323.41161
323.37086
323.33291
323.29266
323.25576
323.21588
323.1799
323.1403
323.10512
323.0657
323.03125
322.99196
322.95817
322.91894
322.88577
322.84655
322.81398
322.7747
322.74273
322.70331
322.67196
322.6323
322.60168
322.56158
322.5319
322.49094
322.46301
322.41867
328.33356
326.48456
325.53335
325.33155
325.08516
324.95088
324.82667
324.72939
324.64
324.56468
324.49091
324.42691
324.36284
324.30536
324.24807
324.19481
324.14252
324.09217
324.04371
323.99544
323.95002
323.90326
323.86031
323.81468
323.77379
323.729
323.68985
323.64569
323.60805
323.56435
323.52805
323.48467
323.44957
323.4064
323.37241
323.32934
323.29638
323.25332
323.22136
323.1782
323.14723
323.10384
323.07392
323.03012
323.0014
322.95688
322.92974
322.8838
322.85952
322.80838
329.12295
327.58306
326.36027
326.09844
325.7734
325.60071
325.44192
325.31973
325.20881
325.11698
325.02763
324.9515
324.87558
324.80853
324.74199
324.68082
324.62122
324.5641
324.50983
324.45562
324.40556
324.35348
324.30685
324.25634
324.21258
324.16324
324.12191
324.07345
324.03422
323.9864
323.94904
323.90168
323.86598
323.81892
323.78476
323.73785
323.70512
323.65823
323.62689
323.57986
323.5499
323.50256
323.47407
323.42615
323.39933
323.35042
323.32578
323.27492
323.25417
323.19682
329.67023
328.55915
327.15169
326.84204
326.44699
326.23909
326.04814
325.9022
325.77089
325.66304
325.55882
325.47082
325.38354
325.30706
325.23165
325.16264
325.09602
325.03218
324.97232
324.9122
324.85769
324.80028
324.75013
324.69475
324.64823
324.59436
324.55094
324.49819
324.45745
324.40553
324.36716
324.31584
324.2796
324.22865
324.19437
324.14363
324.11117
324.06045
324.02976
323.97888
323.94996
323.89868
323.87162
323.81962
323.79468
323.74143
323.71925
323.66358
323.64616
323.58328
330.061
329.38837
327.89083
327.55059
327.09813
326.86006
326.64062
326.47283
326.32289
326.19987
326.08185
325.98245
325.88455
325.79892
325.71518
325.63851
325.56528
325.49485
325.42971
325.36375
325.30504
325.24238
325.18891
325.1287
325.07961
325.02123
324.97586
324.91886
324.87672
324.82073
324.78145
324.72619
324.68947
324.63468
324.60033
324.54579
324.51365
324.45915
324.42914
324.37445
324.34657
324.29141
324.26577
324.20976
324.18667
324.12918
324.10937
324.04907
324.03471
323.967
330.34642
330.06162
328.56302
328.21186
327.71839
327.45699
327.21401
327.02716
326.86098
326.72409
326.59373
326.48368
326.37615
326.28184
326.19049
326.10648
326.02718
325.95036
325.88037
325.80874
325.74616
325.67836
325.62184
325.5569
325.50544
325.44265
325.39551
325.33432
325.29093
325.23093
325.19085
325.13172
325.09462
325.03605
325.00169
324.94342
324.91164
324.85343
324.82412
324.7657
324.73887
324.67992
324.65569
324.59577
324.57449
324.51289
324.49534
324.43066
324.41899
324.34717
330.55875
330.58109
329.1571
328.81462
328.29949
328.02302
327.76267
327.56041
327.38101
327.23207
327.09122
326.97157
326.85568
326.75337
326.6553
326.56442
326.47973
326.39686
326.32255
326.24549
326.17947
326.10673
326.04749
325.97797
325.92442
325.85734
325.80864
325.74339
325.69891
325.63502
325.59428
325.53137
325.494
325.43174
325.39747
325.33557
325.3042
325.24237
325.21381
325.15176
325.12599
325.06336
325.04053
324.97683
324.95729
324.89178
324.87633
324.8076
324.79823
324.72297
330.71977
330.95994
329.66729
329.35016
328.83412
328.55163
328.281
328.06777
327.87873
327.72003
327.57092
327.44305
327.32031
327.2109
327.10724
327.0101
326.92086
326.83239
326.7544
326.67227
326.6033
326.52589
326.46433
326.39047
326.33514
326.26397
326.21397
326.14482
326.09948
326.03184
325.99061
325.92406
325.88655
325.82074
325.78664
325.72124
325.69036
325.62506
325.59727
325.53174
325.50703
325.44089
325.41941
325.35214
325.33424
325.26507
325.25154
325.17912
325.17165
325.09353
330.84467
331.21834
330.09273
329.81338
329.31652
329.03712
328.76384
328.54462
328.35002
328.18426
328.02947
327.89503
327.76723
327.65184
327.54386
327.44127
327.34843
327.25497
327.17403
327.08729
327.01595
326.93424
326.87083
326.79292
326.73619
326.66118
326.61019
326.53737
326.49139
326.4202
326.37867
326.30868
326.27118
326.20199
326.16818
326.09946
326.06913
326.00054
325.97356
325.90474
325.8811
325.81164
325.79147
325.72086
325.70449
325.63196
325.62013
325.54446
325.53849
325.45805
330.94425
331.3805
330.43746
330.20332
329.74293
329.47503
329.20682
328.9869
328.79107
328.62129
328.46364
328.32457
328.19368
328.07363
327.96277
327.85568
327.76034
327.6626
327.57955
327.48876
327.41571
327.33015
327.26542
327.18384
327.12614
327.04761
326.99596
326.91975
326.87341
326.79894
326.75732
326.68413
326.64678
326.57446
326.54105
326.46924
326.43953
326.36787
326.34174
326.26986
326.24727
326.17476
326.15584
326.08217
326.06722
325.99167
325.98131
325.90285
325.898
325.81571
331.02606
331.47126
330.70917
330.52279
330.11179
329.86259
329.60671
329.39132
329.19866
329.02809
328.87055
328.72896
328.59708
328.47386
328.36169
328.2512
328.15453
328.05336
327.96913
327.87494
327.80092
327.71205
327.64657
327.56178
327.50356
327.4219
327.36997
327.29072
327.24431
327.16687
327.12539
327.04929
327.01229
326.9371
326.90422
326.82958
326.80059
326.72612
326.70087
326.62621
326.60467
326.52939
326.51166
326.43525
326.42159
326.3434
326.33428
326.25349
326.24948
326.16571
331.09541
331.51374
330.91811
330.77762
330.42383
330.19885
329.96161
329.75559
329.57032
329.4022
329.24776
329.10587
328.97518
328.8504
328.73854
328.62587
328.52913
328.42546
328.34102
328.2442
328.16998
328.07843
328.01281
327.92533
327.86709
327.78277
327.73095
327.64906
327.6029
327.52286
327.48178
327.4031
327.36663
327.2889
327.25669
327.17953
327.15134
327.07438
327.05006
326.97293
326.95243
326.87471
326.8581
326.77932
326.7668
326.68638
326.6783
326.59565
326.59221
326.50733
331.1558
331.52707
331.07543
330.97573
330.68198
330.48476
330.27109
330.07859
329.90449
329.74191
329.59344
329.45346
329.32613
329.20143
329.09155
328.97796
328.88245
328.77729
328.69367
328.59505
328.52142
328.42788
328.36278
328.2732
328.21547
328.12899
328.0777
327.99363
327.94806
327.86583
327.82541
327.74454
327.70881
327.62889
327.59751
327.51817
327.49088
327.41177
327.38842
327.30917
327.2897
327.20991
327.19435
327.11359
327.10209
327.01988
327.01263
326.92856
326.92551
326.83983
331.20963
331.52596
331.19217
331.12618
330.89095
330.72302
330.53619
330.36042
330.20065
330.04634
329.90644
329.77048
329.64856
329.52559
329.4193
329.3061
329.21308
329.10751
329.02572
328.92616
328.85396
328.75916
328.69525
328.60421
328.54752
328.45944
328.40913
328.32337
328.27874
328.19477
328.15528
328.07265
328.03786
327.95617
327.92575
327.84464
327.81835
327.73747
327.71514
327.63415
327.6157
327.53424
327.51967
327.43735
327.42674
327.34317
327.33659
327.25154
327.24874
327.16256
331.2583
331.52015
331.27833
331.23825
331.05674
330.9177
330.75925
330.60232
330.45926
330.31548
330.18636
330.05632
329.94165
329.82198
329.72077
329.60926
329.51996
329.41503
329.33607
329.23648
329.16652
329.07123
329.00916
328.91733
328.86223
328.77315
328.72424
328.63734
328.594
328.50879
328.47051
328.38658
328.35294
328.26991
328.24061
328.15815
328.13294
328.05072
328.02944
327.94713
327.92969
327.84698
327.83334
327.74989
327.74007
327.65558
327.64953
327.56391
327.56128
327.47489
331.30281
331.51557
331.34243
331.32074
331.18599
331.07389
330.94371
330.8066
330.68175
330.55017
330.43354
330.31102
330.20518
330.0902
329.99544
329.88681
329.80237
329.69912
329.62393
329.5252
329.45826
329.36326
329.30368
329.21174
329.15875
329.06929
329.02221
328.93474
328.89303
328.8071
328.7703
328.68555
328.65328
328.56938
328.54135
328.45797
328.43395
328.35081
328.33064
328.24745
328.23101
328.14749
328.13473
328.05059
328.04146
327.9565
327.95087
327.86508
327.86257
327.77624
331.34367
331.51487
331.39123
331.38139
331.28544
331.19718
331.09381
330.97643
330.87039
330.75201
330.64906
330.53528
330.43951
330.33042
330.24324
330.13858
330.05998
329.95939
329.88881
329.7918
329.7286
329.63466
329.57817
329.48682
329.43643
329.34722
329.30239
329.21491
329.17517
329.08905
329.054
328.96894
328.93824
328.85393
328.82732
328.7435
328.72076
328.63716
328.61814
328.53451
328.51908
328.43518
328.42327
328.33888
328.33038
328.24536
328.2401
328.15449
328.15207
328.06611
331.38134
331.5188
331.42985
331.42658
331.36143
331.29327
331.21421
331.11554
331.02809
330.92329
330.83461
330.73039
330.64554
330.54329
330.46457
330.36481
330.29288
330.19581
330.13058
330.0361
329.97726
329.88512
329.83226
329.74217
329.69484
329.60649
329.56429
329.47737
329.43991
329.35415
329.32109
329.23622
329.20729
329.12307
329.09802
329.01422
328.99286
328.90925
328.89143
328.80781
328.7934
328.70957
328.69848
328.61427
328.60635
328.52169
328.51674
328.43168
328.42935
328.34404
331.41602
331.52674
331.46185
331.46131
331.4196
331.36758
331.3097
331.22801
331.15823
331.06676
330.9924
330.89816
330.82469
330.72992
330.66027
330.56616
330.50152
330.40872
330.34943
330.25819
330.20425
330.11459
330.06582
329.97762
329.93376
329.84687
329.80763
329.72184
329.68694
329.60206
329.57123
329.48706
329.46006
329.37641
329.35305
329.26974
329.24984
329.16669
329.15012
329.06696
329.05358
328.97025
328.95996
328.87636
328.86899
328.78507
328.78042
328.69624
328.69401
328.60965
331.448
331.53774
331.48963
331.48921
331.46467
331.425
331.38487
331.31798
331.26439
331.18552
331.12502
331.04076
330.97877
330.89185
330.83159
330.74365
330.68671
330.59878
330.54587
330.45849
330.40987
330.32327
330.27898
330.19326
330.1532
330.06832
330.03234
329.94821
329.91611
329.83262
329.8042
329.72123
329.69632
329.61372
329.59216
329.5098
329.49145
329.4092
329.39391
329.31164
329.29932
329.21692
329.20742
329.12482
329.118
329.03519
329.03083
328.94786
328.94574
328.86263
331.47747
331.55066
331.51462
331.5128
331.50039
331.46969
331.44392
331.38944
331.35019
331.2828
331.2353
331.1607
331.10989
331.03092
330.98008
330.89864
330.84961
330.76698
330.72071
330.63767
330.59466
330.51166
330.47213
330.38939
330.3534
330.27103
330.23853
330.15655
330.12745
330.04583
330.02
329.93868
329.916
329.83489
329.81524
329.73427
329.71752
329.6366
329.62265
329.54169
329.53043
329.44935
329.44066
329.35944
329.35317
329.27181
329.26776
329.18631
329.18432
329.10273
331.50468
331.56462
331.53765
331.53369
331.5296
331.50506
331.49052
331.44603
331.41909
331.36181
331.32615
331.26057
331.22038
331.1492
331.10757
331.03273
330.9916
330.91454
330.87502
330.7967
330.75945
330.68044
330.64585
330.56653
330.53478
330.45537
330.42653
330.34714
330.32119
330.24187
330.21876
330.13951
330.11916
330.03997
330.0223
329.94313
329.92805
329.84885
329.83628
329.75701
329.74684
329.66746
329.65959
329.5801
329.57438
329.4948
329.49108
329.41143
329.40959
329.32982
331.52981
331.57893
331.55914
331.55286
331.55434
331.53373
331.52771
331.49097
331.47428
331.42561
331.40043
331.34305
331.31266
331.24888
331.21602
331.14772
331.11427
331.04291
331.01008
330.9367
330.90525
330.83054
330.80097
330.72542
330.698
330.62192
330.59683
330.52042
330.49771
330.42108
330.40076
330.32399
330.30603
330.22915
330.21351
330.13652
330.12314
330.04604
330.03486
329.95765
329.94858
329.87125
329.8642
329.78677
329.78162
329.70411
329.70074
329.62317
329.62149
329.54381
331.55309
331.59314
331.57929
331.57083
331.57599
331.55768
331.55792
331.52697
331.51857
331.477
331.46084
331.4107
331.38913
331.33222
331.30751
331.2455
331.21937
331.15368
331.12733
331.059
331.03325
330.96305
330.93845
330.86693
330.84386
330.77141
330.7501
330.67698
330.65755
330.58395
330.56646
330.4925
330.47697
330.40272
330.38915
330.31468
330.30303
330.22836
330.21859
330.14375
330.1358
330.06082
330.05461
329.97952
329.97496
329.8998
329.89679
329.82156
329.82006
329.74471
331.57469
331.607
331.59819
331.58783
331.59543
331.57831
331.58302
331.55621
331.55432
331.51846
331.50985
331.46595
331.4521
331.40142
331.3841
331.32802
331.3087
331.24851
331.22831
331.16503
331.14477
331.07916
331.05943
330.9921
330.97331
330.9047
330.88713
330.81755
330.80139
330.73108
330.71643
330.64555
330.63246
330.56115
330.54965
330.47797
330.46806
330.39611
330.38776
330.31557
330.30875
330.23639
330.23103
330.15854
330.15458
330.082
330.07937
330.00671
330.0054
329.93261
331.59478
331.62038
331.61587
331.60397
331.61322
331.59655
331.60439
331.58042
331.5835
331.55207
331.54963
331.51097
331.50374
331.45858
331.4478
331.39719
331.38407
331.32912
331.31464
331.25628
331.24121
331.18021
331.16512
331.10207
331.0874
331.02278
331.00885
330.943
330.93004
330.86323
330.85136
330.7838
330.77311
330.70496
330.69551
330.62689
330.61869
330.54969
330.54275
330.47347
330.46776
330.39825
330.39374
330.32407
330.32072
330.25094
330.24871
330.17882
330.1777
330.10768
331.6135
331.63323
331.63239
331.61927
331.62966
331.61303
331.62299
331.6009
331.60767
331.5796
331.58206
331.54769
331.54599
331.50561
331.5005
331.45484
331.44724
331.39719
331.38791
331.3343
331.32402
331.26754
331.25681
331.19804
331.18729
331.12671
331.11628
331.05426
331.04438
330.98122
330.97204
330.90797
330.89962
330.83482
330.82736
330.76198
330.75547
330.68963
330.68407
330.61787
330.61327
330.5468
330.54314
330.47648
330.47374
330.40692
330.40509
330.33815
330.33723
330.27015
331.63097
331.64553
331.64777
331.63372
331.64493
331.62812
331.6395
331.61859
331.62802
331.60244
331.60867
331.57777
331.58055
331.54426
331.54394
331.50269
331.49989
331.45436
331.44971
331.40058
331.39465
331.34254
331.33582
331.28127
331.27417
331.21764
331.21048
331.15235
331.14538
331.08596
331.07935
331.01888
331.01276
330.95144
330.94591
330.88391
330.87902
330.81648
330.81227
330.74931
330.74579
330.68251
330.67969
330.61617
330.61404
330.55033
330.5489
330.48505
330.48433
330.42033
331.6473
331.65728
331.66207
331.64731
331.65911
331.64205
331.65436
331.63416
331.64545
331.62166
331.63072
331.60257
331.6089
331.57605
331.57967
331.5423
331.54357
331.50214
331.50152
331.45657
331.45451
331.40656
331.40347
331.353
331.34924
331.29669
331.29257
331.23831
331.23406
331.17839
331.1742
331.11738
331.11337
331.05562
331.05191
330.99339
330.99004
330.93091
330.92799
330.86838
330.8659
330.80592
330.8039
330.74364
330.7421
330.68162
330.68058
330.61992
330.6194
330.55859
331.66257
331.6685
331.67532
331.66003
331.67226
331.65495
331.66783
331.64807
331.66058
331.6381
331.6492
331.62321
331.63225
331.60226
331.60905
331.57503
331.57969
331.54193
331.54476
331.50364
331.50496
331.46091
331.46103
331.41448
331.41371
331.36503
331.36366
331.31321
331.31145
331.25952
331.25755
331.20439
331.20235
331.14818
331.14617
331.09117
331.08929
331.03362
331.03191
330.97571
330.97422
330.9176
330.91637
330.85942
330.85847
330.80127
330.80062
330.74323
330.7429
330.68536
331.67685
331.67918
331.68759
331.67188
331.68438
331.66686
331.68008
331.6606
331.67389
331.65235
331.66486
331.64056
331.65162
331.62398
331.63323
331.6021
331.6095
331.57499
331.58068
331.54306
331.54724
331.50683
331.50973
331.46688
331.46875
331.42378
331.42486
331.3781
331.37858
331.33032
331.33037
331.28083
331.28058
331.22998
331.22955
331.17807
331.17753
331.12534
331.12477
331.072
331.07144
331.01821
331.01771
330.96413
330.96371
330.90985
330.90956
330.85549
330.85533
330.8011
331.69019
331.6893
331.69887
331.68284
331.6955
331.67783
331.69121
331.67194
331.68567
331.66485
331.67827
331.6553
331.66778
331.6421
331.6532
331.62453
331.63407
331.60243
331.61043
331.57597
331.58252
331.54546
331.55071
331.51132
331.51546
331.47403
331.47724
331.43403
331.43649
331.39178
331.39363
331.34762
331.34899
331.3019
331.30289
331.25489
331.25558
331.20684
331.20731
331.15796
331.15826
331.10841
331.10859
331.05836
331.05846
331.00793
331.00798
330.95723
330.95725
330.90634
331.70264
331.69883
331.7092
331.69291
331.7056
331.68787
331.70128
331.68222
331.69614
331.67589
331.68985
331.66796
331.68138
331.65732
331.66973
331.64318
331.65433
331.6252
331.63501
331.60338
331.61184
331.57784
331.58503
331.54886
331.5549
331.51678
331.52181
331.48199
331.48615
331.44484
331.44827
331.40568
331.40847
331.3648
331.36705
331.32245
331.32425
331.27889
331.2803
331.23431
331.23539
331.18889
331.18969
331.14279
331.14335
331.09613
331.09648
331.04903
331.04921
331.0016
331.71418
331.70772
331.71854
331.70206
331.71469
331.69696
331.71032
331.69149
331.70543
331.68569
331.6999
331.67891
331.69289
331.67019
331.68349
331.65874
331.67105
331.64413
331.65528
331.62618
331.63613
331.6049
331.61364
331.58043
331.58802
331.55299
331.55954
331.52289
331.5285
331.49043
331.49519
331.45588
331.45989
331.41951
331.42286
331.38156
331.38432
331.34226
331.3445
331.30179
331.30356
331.26034
331.26169
331.21805
331.21903
331.17506
331.1757
331.13149
331.13181
331.08745
331.72476
331.71587
331.72687
331.71027
331.72274
331.70511
331.71834
331.69979
331.71364
331.69439
331.70863
331.68844
331.70269
331.68116
331.69497
331.6718
331.68486
331.65988
331.67199
331.64514
331.65618
331.62747
331.63739
331.60689
331.6157
331.58354
331.59129
331.55762
331.5644
331.52939
331.53526
331.49906
331.5041
331.46686
331.47114
331.43301
331.43659
331.3977
331.40065
331.36113
331.3635
331.32345
331.32529
331.28482
331.28617
331.24537
331.24625
331.20521
331.20565
331.16446
331.73423
331.72317
331.73413
331.7175
331.72978
331.71232
331.72537
331.70717
331.72084
331.70208
331.71621
331.69674
331.71103
331.69054
331.7046
331.6828
331.6963
331.67302
331.68575
331.6609
331.67271
331.64624
331.65703
331.62899
331.63872
331.60919
331.61788
331.58697
331.59467
331.56251
331.56927
331.53599
331.54187
331.50761
331.51265
331.47753
331.48181
331.44595
331.4495
331.41303
331.41591
331.37891
331.38117
331.34375
331.34541
331.30767
331.30876
331.27079
331.27133
331.23322
331.74235
331.72946
331.74029
331.72373
331.73578
331.7186
331.73143
331.71365
331.72707
331.70884
331.72276
331.70399
331.71815
331.6986
331.71267
331.69209
331.70578
331.68401
331.69707
331.674
331.68628
331.66185
331.6732
331.6474
331.65777
331.63064
331.64001
331.61164
331.62003
331.59052
331.59796
331.56742
331.57394
331.54248
331.54813
331.51585
331.52068
331.4877
331.49174
331.45816
331.46146
331.42738
331.42997
331.39548
331.3974
331.3626
331.36386
331.32883
331.32946
331.29429
331.7488
331.73463
331.74529
331.72895
331.74077
331.72396
331.73655
331.71926
331.7324
331.71473
331.72836
331.71027
331.72419
331.70552
331.71944
331.69997
331.71362
331.69321
331.70637
331.6849
331.69739
331.67478
331.68646
331.66267
331.67344
331.6485
331.65832
331.63228
331.64114
331.61408
331.622
331.594
331.601
331.57214
331.57824
331.54863
331.55387
331.5236
331.52802
331.49718
331.5008
331.46948
331.47234
331.44063
331.44275
331.41074
331.41215
331.37992
331.38062
331.34825
331.75335
331.73859
331.74915
331.73317
331.74479
331.72844
331.74078
331.72403
331.73687
331.7198
331.73309
331.7157
331.72928
331.71145
331.72509
331.70664
331.7201
331.70092
331.71399
331.69395
331.70646
331.68548
331.69726
331.6753
331.68625
331.66329
331.67335
331.64944
331.65859
331.63376
331.64199
331.61632
331.62364
331.5972
331.60361
331.57648
331.58202
331.55427
331.55896
331.53068
331.53454
331.50582
331.50887
331.47978
331.48206
331.45268
331.45419
331.42461
331.42536
331.39565
331.756
331.74136
331.75192
331.73645
331.74789
331.73209
331.74416
331.72802
331.74053
331.72411
331.73702
331.72034
331.73352
331.7165
331.72977
331.71228
331.72543
331.70736
331.72019
331.70145
331.7138
331.6943
331.70601
331.68568
331.69664
331.67547
331.6856
331.66361
331.67287
331.65008
331.65846
331.63493
331.64242
331.6182
331.62479
331.59995
331.60567
331.58026
331.58512
331.55923
331.56325
331.53695
331.54014
331.51349
331.51587
331.48896
331.49054
331.46344
331.46423
331.43702
331.75699
331.74307
331.7537
331.73887
331.75015
331.73496
331.74677
331.73128
331.74345
331.72771
331.74021
331.72425
331.737
331.72077
331.73361
331.71702
331.72976
331.71272
331.7252
331.70764
331.71969
331.70152
331.713
331.69416
331.70496
331.68541
331.69544
331.67519
331.68442
331.66349
331.67187
331.65029
331.65782
331.63563
331.64229
331.61955
331.62534
331.6021
331.60704
331.58335
331.58745
331.56339
331.56665
331.54228
331.54472
331.52011
331.52173
331.49694
331.49775
331.47286
331.75681
331.74391
331.75464
331.74053
331.75165
331.73714
331.74868
331.73387
331.74569
331.73064
331.74274
331.7275
331.73979
331.72434
331.73669
331.72096
331.73322
331.71714
331.72917
331.71268
331.72434
331.70737
331.71851
331.70099
331.71151
331.69342
331.70324
331.68455
331.69361
331.67436
331.68263
331.66281
331.67026
331.64992
331.65654
331.63571
331.64149
331.62022
331.62516
331.60351
331.60761
331.58562
331.5889
331.56663
331.56908
331.54659
331.54822
331.52557
331.52639
331.50365
331.75594
331.74412
331.75492
331.74156
331.75252
331.7387
331.74997
331.73585
331.74733
331.73299
331.74465
331.73014
331.74195
331.72726
331.73909
331.72418
331.73591
331.72072
331.73224
331.71673
331.72791
331.71202
331.72273
331.70641
331.71655
331.69975
331.70925
331.69197
331.70076
331.68301
331.69106
331.67284
331.68012
331.66145
331.66793
331.64885
331.65452
331.63506
331.63992
331.62012
331.62417
331.60407
331.60731
331.58696
331.5894
331.56885
331.57047
331.54979
331.5506
331.52983
331.75478
331.74393
331.75468
331.74207
331.75285
331.73975
331.75072
331.73731
331.74842
331.73479
331.74602
331.73223
331.74354
331.72959
331.74088
331.72674
331.73792
331.72355
331.73451
331.7199
331.73053
331.71562
331.72582
331.71057
331.72025
331.70462
331.7137
331.69769
331.70612
331.68972
331.69746
331.68067
331.68769
331.67053
331.6768
331.65929
331.66479
331.64695
331.65169
331.63356
331.63751
331.61912
331.62229
331.60369
331.60607
331.58731
331.58889
331.57
331.5708
331.55184
331.75352
331.74349
331.75409
331.74219
331.75274
331.74035
331.75101
331.7383
331.74904
331.73611
331.7469
331.73381
331.74462
331.73137
331.74211
331.7287
331.73928
331.72569
331.73604
331.72225
331.73229
331.71826
331.7279
331.71361
331.72276
331.70818
331.71678
331.70189
331.7099
331.69469
331.70206
331.68655
331.69325
331.67743
331.68343
331.66733
331.6726
331.65623
331.66078
331.64416
331.64796
331.63113
331.63418
331.61717
331.61947
331.60231
331.60385
331.58659
331.58736
331.57003
331.75227
331.74292
331.75325
331.74202
331.7523
331.74059
331.75092
331.7389
331.74924
331.73701
331.74734
331.73493
331.74521
331.73264
331.74281
331.73008
331.74005
331.72716
331.73689
331.72384
331.73325
331.72002
331.72906
331.71562
331.7242
331.71054
331.71862
331.70472
331.71225
331.69812
331.70506
331.69068
331.697
331.68239
331.68806
331.67321
331.67822
331.66316
331.66747
331.65221
331.65583
331.6404
331.64331
331.62772
331.62991
331.61421
331.61567
331.59989
331.60062
331.58478
331.75103
331.74229
331.75225
331.74163
331.7516
331.74055
331.75052
331.73917
331.7491
331.73752
331.74738
331.73562
331.74537
331.73343
331.743
331.7309
331.74025
331.728
331.73708
331.7247
331.73346
331.72094
331.72934
331.71667
331.72464
331.7118
331.71931
331.7063
331.71331
331.70012
331.7066
331.69323
331.69913
331.68558
331.69089
331.67717
331.68186
331.66796
331.67202
331.65797
331.66137
331.64719
331.64993
331.63563
331.63769
331.62329
331.62467
331.61021
331.6109
331.59638
331.74979
331.74162
331.75113
331.74108
331.75071
331.74028
331.74987
331.73915
331.74866
331.7377
331.74707
331.73591
331.7451
331.73374
331.7427
331.73118
331.73988
331.72821
331.73662
331.72484
331.73294
331.72105
331.72879
331.71679
331.72414
331.71202
331.71894
331.70671
331.71317
331.70082
331.70679
331.69432
331.69977
331.68717
331.69208
331.67935
331.6837
331.67085
331.67461
331.66165
331.66481
331.65174
331.65429
331.64114
331.64306
331.62983
331.63111
331.61783
331.61847
331.60515
331.74854
331.74093
331.74994
331.74042
331.74967
331.73982
331.74902
331.73888
331.74795
331.73756
331.74642
331.7358
331.74441
331.73359
331.74191
331.73091
331.73893
331.72779
331.73551
331.72426
331.73167
331.72034
331.72741
331.71601
331.72271
331.71123
331.71755
331.706
331.7119
331.70028
331.70574
331.69405
331.69904
331.68727
331.69177
331.67992
331.68391
331.67198
331.67543
331.66343
331.66634
331.65426
331.65661
331.64447
331.64624
331.63404
331.63523
331.62299
331.62359
331.61132
331.74726
331.74022
331.7487
331.73968
331.74852
331.73923
331.748
331.73841
331.747
331.73713
331.74544
331.73531
331.74331
331.73294
331.74061
331.73005
331.7374
331.7267
331.73373
331.72294
331.72966
331.71882
331.7252
331.71432
331.72037
331.70946
331.71516
331.70422
331.70954
331.69857
331.7035
331.6925
331.69702
331.68598
331.69006
331.67898
331.6826
331.67148
331.67463
331.66347
331.66611
331.65491
331.65705
331.64581
331.64743
331.63615
331.63723
331.62593
331.62647
331.61515
331.74595
331.73951
331.7474
331.73887
331.74729
331.73851
331.74684
331.73774
331.74582
331.7364
331.74413
331.73441
331.74176
331.73178
331.73877
331.72859
331.73523
331.72492
331.73123
331.72085
331.72686
331.71644
331.72215
331.71172
331.71712
331.7067
331.71178
331.70137
331.70612
331.69572
331.70013
331.68973
331.69377
331.68338
331.68704
331.67664
331.67989
331.66949
331.67231
331.6619
331.66428
331.65385
331.65578
331.64533
331.64679
331.63633
331.63731
331.62683
331.62732
331.61682
331.74459
331.73877
331.74606
331.73801
331.74599
331.73769
331.74555
331.73687
331.7444
331.73535
331.74245
331.73306
331.73973
331.73006
331.73633
331.72646
331.73238
331.72238
331.72798
331.71793
331.72324
331.71319
331.71822
331.70819
331.71294
331.70295
331.70742
331.69747
331.70166
331.69176
331.69564
331.68579
331.68935
331.67954
331.68276
331.67298
331.67585
331.66608
331.66859
331.65884
331.66095
331.65121
331.65292
331.64319
331.64448
331.63474
331.63561
331.62587
331.6263
331.61654
331.74318
331.73803
331.74468
331.7371
331.74462
331.73676
331.74411
331.73578
331.7427
331.73393
331.74035
331.73121
331.73715
331.72771
331.73324
331.72361
331.72878
331.71904
331.72392
331.71415
331.71876
331.70901
331.71338
331.70368
331.7078
331.69818
331.70206
331.69252
331.69616
331.6867
331.69007
331.68069
331.6838
331.67448
331.6773
331.66805
331.67056
331.66135
331.66354
331.65438
331.65623
331.6471
331.6486
331.63949
331.64063
331.63153
331.63229
331.6232
331.62358
331.61447
331.7417
331.73726
331.74325
331.73615
331.7432
331.73572
331.7425
331.73443
331.74068
331.7321
331.73777
331.72878
331.73394
331.72466
331.72941
331.71995
331.72437
331.71483
331.71897
331.70943
331.71335
331.70387
331.70757
331.69817
331.70168
331.69239
331.69569
331.68651
331.68961
331.68054
331.68343
331.67447
331.67713
331.66826
331.67068
331.6619
331.66406
331.65536
331.65725
331.64861
331.65021
331.64162
331.64292
331.63436
331.63535
331.62681
331.62748
331.61896
331.61929
331.61076
331.74015
331.73648
331.74177
331.73515
331.74169
331.73453
331.74067
331.73276
331.73825
331.72974
331.7346
331.72567
331.73001
331.7208
331.72476
331.7154
331.71905
331.70966
331.71308
331.70373
331.70696
331.6977
331.70076
331.69163
331.69453
331.68553
331.68828
331.67942
331.68201
331.6733
331.67572
331.66713
331.66937
331.66091
331.66295
331.6546
331.65642
331.64817
331.64977
331.6416
331.64296
331.63485
331.63595
331.6279
331.62874
331.62071
331.62128
331.61327
331.61355
331.60555
331.73852
331.73568
331.74023
331.73411
331.74007
331.73313
331.73854
331.73066
331.7353
331.72676
331.73072
331.72177
331.72524
331.71604
331.71917
331.70987
331.71275
331.70346
331.70617
331.69696
331.69953
331.69046
331.69291
331.684
331.68634
331.6776
331.67982
331.67126
331.67336
331.66497
331.66694
331.65871
331.66054
331.65245
331.65413
331.64617
331.64768
331.63983
331.64116
331.63341
331.63454
331.62687
331.62779
331.62018
331.62089
331.61332
331.61379
331.60625
331.60649
331.59894
331.73679
331.7349
331.73864
331.733
331.73829
331.73145
331.73601
331.72801
331.73169
331.723
331.72601
331.71694
331.71951
331.71025
331.71254
331.70325
331.70537
331.69615
331.69816
331.68908
331.69101
331.6821
331.68397
331.67527
331.67706
331.66857
331.6703
331.662
331.66366
331.65556
331.65712
331.6492
331.65066
331.64291
331.64426
331.63666
331.63787
331.6304
331.63147
331.62411
331.62503
331.61776
331.61851
331.61131
331.61188
331.60473
331.60512
331.59799
331.59819
331.59107
331.73495
331.73414
331.73698
331.7318
331.73625
331.72937
331.73292
331.72465
331.72727
331.71831
331.7203
331.71104
331.71267
331.70332
331.70477
331.69546
331.69683
331.68765
331.68899
331.68002
331.68134
331.67259
331.6739
331.6654
331.66669
331.65842
331.65969
331.65166
331.65289
331.64507
331.64626
331.63864
331.63976
331.63232
331.63336
331.62609
331.62704
331.61991
331.62076
331.61375
331.61448
331.60758
331.60817
331.60134
331.6018
331.59503