/*--------------------------------*- C++ -*----------------------------------*\
| =========                 |                                                 |
| \\      /  F ield         | OpenFOAM: The Open Source CFD Toolbox           |
|  \\    /   O peration     | Version:  2312                                  |
|   \\  /    A nd           | Website:  www.openfoam.com                      |
|    \\/     M anipulation  |                                                 |
\*---------------------------------------------------------------------------*/
FoamFile
{
    version     2.0;
    format      ascii;
    arch        "LSB;label=32;scalar=64";
    class       volVectorField;
    location    "3";
    object      U;
}
// * * * * * * * * * * * * * * * * * * * * * * * * * * * * * * * * * * * * * //

dimensions      [0 1 -1 0 0 0 0];

internalField   nonuniform List<vector> 
4000
(
(0.0034014212 0.00066095083 0)
(0.0064339572 -7.9496126e-06 0)
(0.0031562474 -7.6666636e-09 0)
(0.0038602704 -6.9227462e-07 0)
(0.0036037226 8.4837671e-08 0)
(0.0035862348 -1.9228416e-07 0)
(0.0035867559 9.270889e-08 0)
(0.0035378849 -1.5541692e-07 0)
(0.0035621573 1.1202377e-07 0)
(0.0035326001 -1.1731808e-07 0)
(0.0035543556 1.0295698e-07 0)
(0.0035337045 -9.7377844e-08 0)
(0.0035517346 9.0098624e-08 0)
(0.0035350209 -8.4111584e-08 0)
(0.0035503634 7.8403344e-08 0)
(0.003536071 -7.3191933e-08 0)
(0.0035493509 6.8292303e-08 0)
(0.0035369584 -6.3748185e-08 0)
(0.003548496 5.9465301e-08 0)
(0.0035377349 -5.5467529e-08 0)
(0.0035477575 5.1710783e-08 0)
(0.0035384161 -4.8183421e-08 0)
(0.0035471146 4.4876374e-08 0)
(0.0035390137 -4.1762535e-08 0)
(0.0035465515 3.8846702e-08 0)
(0.0035395398 -3.6099354e-08 0)
(0.0035460557 3.3530622e-08 0)
(0.0035400043 -3.1112929e-08 0)
(0.0035456174 2.8857074e-08 0)
(0.0035404155 -2.6738264e-08 0)
(0.003545229 2.4767349e-08 0)
(0.0035407805 -2.2922285e-08 0)
(0.003544884 2.1212656e-08 0)
(0.003541105 -1.9619089e-08 0)
(0.0035445768 1.8149932e-08 0)
(0.0035413945 -1.678829e-08 0)
(0.0035443024 1.554169e-08 0)
(0.0035416537 -1.4395271e-08 0)
(0.0035440559 1.3354896e-08 0)
(0.0035418874 -1.2408427e-08 0)
(0.0035438329 1.1561073e-08 0)
(0.0035421 -1.0802302e-08 0)
(0.0035436288 1.0136049e-08 0)
(0.0035422956 -9.55527e-09 0)
(0.0035434397 9.0614691e-09 0)
(0.0035424789 -8.6477468e-09 0)
(0.0035432626 8.3366445e-09 0)
(0.003542649 -8.0627651e-09 0)
(0.0035430567 7.8513424e-09 0)
(0.0035426725 -8.5339371e-09 0)
(0.0080581329 0.0016973808 0)
(0.016812184 1.6891655e-05 0)
(0.0099400634 3.3731807e-05 0)
(0.011041439 -5.3425239e-06 0)
(0.010470864 3.9906533e-06 0)
(0.010388211 -2.8409779e-07 0)
(0.010412739 1.1050599e-06 0)
(0.010266964 -1.3185632e-07 0)
(0.010340377 5.0238936e-07 0)
(0.010254024 -3.0446807e-07 0)
(0.010317869 3.6806072e-07 0)
(0.010257552 -3.2409632e-07 0)
(0.010310505 3.1799856e-07 0)
(0.010261467 -2.9554018e-07 0)
(0.010306585 2.7903354e-07 0)
(0.010264564 -2.6015099e-07 0)
(0.010303629 2.4355311e-07 0)
(0.010267188 -2.2691232e-07 0)
(0.01030111 2.1192873e-07 0)
(0.010269487 -1.9742107e-07 0)
(0.010298926 1.8408638e-07 0)
(0.010271508 -1.7137947e-07 0)
(0.010297022 1.5955839e-07 0)
(0.010273284 -1.4836973e-07 0)
(0.010295352 1.3791205e-07 0)
(0.010274847 -1.2805115e-07 0)
(0.010293882 1.1882711e-07 0)
(0.010276227 -1.1015332e-07 0)
(0.010292584 1.0205141e-07 0)
(0.010277447 -9.4455699e-08 0)
(0.010291436 8.7379362e-08 0)
(0.010278526 -8.0769425e-08 0)
(0.010290419 7.4635886e-08 0)
(0.010279484 -6.8931863e-08 0)
(0.010289515 6.3665763e-08 0)
(0.010280337 -5.8797349e-08 0)
(0.010288709 5.4331162e-08 0)
(0.010281098 -5.0233981e-08 0)
(0.010287987 4.6511049e-08 0)
(0.010281784 -4.3132632e-08 0)
(0.010287334 4.0101603e-08 0)
(0.010282407 -3.7394444e-08 0)
(0.010286737 3.5017167e-08 0)
(0.01028298 -3.2944195e-08 0)
(0.010286184 3.1179831e-08 0)
(0.010283517 -2.9733611e-08 0)
(0.010285665 2.8586341e-08 0)
(0.010284028 -2.7281299e-08 0)
(0.010285104 2.891286e-08 0)
(0.010284193 -2.4392106e-08 0)
(0.010893712 0.0022131301 0)
(0.025848765 -4.0134523e-05 0)
(0.016496768 7.603763e-05 0)
(0.018037878 -9.0877673e-06 0)
(0.017142543 9.532533e-06 0)
(0.017002754 -2.9997165e-07 0)
(0.017060697 2.469399e-06 0)
(0.016817386 3.9188523e-08 0)
(0.01694553 9.7416589e-07 0)
(0.016800679 -4.8113915e-07 0)
(0.016909046 6.7083536e-07 0)
(0.016807539 -5.7810876e-07 0)
(0.016897079 5.7833653e-07 0)
(0.016814312 -5.3747874e-07 0)
(0.01689057 5.0933026e-07 0)
(0.016819571 -4.7477936e-07 0)
(0.016885597 4.4491636e-07 0)
(0.016824019 -4.1425541e-07 0)
(0.016881339 3.8707007e-07 0)
(0.016827919 -3.6041648e-07 0)
(0.016877641 3.3610363e-07 0)
(0.016831349 -3.1281304e-07 0)
(0.01687441 2.9120574e-07 0)
(0.016834366 -2.7071559e-07 0)
(0.016871575 2.5157621e-07 0)
(0.016837023 -2.3352114e-07 0)
(0.016869078 2.166298e-07 0)
(0.016839367 -2.0075055e-07 0)
(0.016866875 1.8591183e-07 0)
(0.016841437 -1.7200423e-07 0)
(0.016864929 1.5904338e-07 0)
(0.016843268 -1.4694387e-07 0)
(0.016863206 1.3571208e-07 0)
(0.016844889 -1.2527125e-07 0)
(0.016861679 1.1562781e-07 0)
(0.016846329 -1.0671503e-07 0)
(0.01686032 9.8538331e-08 0)
(0.016847615 -9.1040529e-08 0)
(0.016859103 8.4222782e-08 0)
(0.01684877 -7.8036662e-08 0)
(0.016858004 7.2485324e-08 0)
(0.016849818 -6.7528725e-08 0)
(0.016857 6.317214e-08 0)
(0.016850782 -5.9369797e-08 0)
(0.016856069 5.6132558e-08 0)
(0.016851685 -5.3493941e-08 0)
(0.016855196 5.1315785e-08 0)
(0.016852551 -4.8890252e-08 0)
(0.016854281 5.2926256e-08 0)
(0.016852907 -4.264289e-08 0)
(0.017727325 0.0038367499 0)
(0.034378918 -3.4141001e-05 0)
(0.022785289 0.00013084141 0)
(0.024849844 -1.4467402e-05 0)
(0.023619914 1.7580962e-05 0)
(0.023430311 -2.4155796e-07 0)
(0.023530048 4.2353102e-06 0)
(0.023189374 4.6445429e-07 0)
(0.023377718 1.4683645e-06 0)
(0.02317267 -5.7651715e-07 0)
(0.023327985 9.5698257e-07 0)
(0.023183615 -8.0928462e-07 0)
(0.023311562 8.2572117e-07 0)
(0.023193471 -7.6834441e-07 0)
(0.023302425 7.3070669e-07 0)
(0.023201013 -6.8118015e-07 0)
(0.023295348 6.389165e-07 0)
(0.023207386 -5.9450644e-07 0)
(0.02328926 5.5571593e-07 0)
(0.023212976 -5.1720262e-07 0)
(0.023283962 4.8233989e-07 0)
(0.023217897 -4.4877598e-07 0)
(0.023279327 4.1771064e-07 0)
(0.023222227 -3.8820556e-07 0)
(0.023275257 3.606541e-07 0)
(0.023226042 -3.3466466e-07 0)
(0.023271675 3.1033851e-07 0)
(0.023229405 -2.8748146e-07 0)
(0.023268516 2.6610997e-07 0)
(0.023232371 -2.4609651e-07 0)
(0.023265729 2.2743033e-07 0)
(0.023234991 -2.1001863e-07 0)
(0.023263265 1.9384522e-07 0)
(0.023237308 -1.7882306e-07 0)
(0.023261085 1.6494009e-07 0)
(0.023239362 -1.5212044e-07 0)
(0.023259147 1.4034644e-07 0)
(0.023241193 -1.2955751e-07 0)
(0.023257415 1.1974298e-07 0)
(0.023242835 -1.108435e-07 0)
(0.023255854 1.0284767e-07 0)
(0.023244323 -9.5712485e-08 0)
(0.023254431 8.9439768e-08 0)
(0.02324569 -8.3959832e-08 0)
(0.023253112 7.9294895e-08 0)
(0.023246967 -7.5513577e-08 0)
(0.023251876 7.2276534e-08 0)
(0.023248198 -6.8747996e-08 0)
(0.023250609 7.6129168e-08 0)
(0.023248791 -5.8501397e-08 0)
(0.020273521 0.0040147501 0)
(0.041911001 -0.00013159608 0)
(0.028850162 0.00019406537 0)
(0.031493472 -2.1484547e-05 0)
(0.029902751 2.814572e-05 0)
(0.029672891 -1.4165549e-07 0)
(0.029819286 6.3377601e-06 0)
(0.029383355 1.1126302e-06 0)
(0.029636711 1.9463913e-06 0)
(0.029370234 -5.8548979e-07 0)
(0.029574572 1.2107764e-06 0)
(0.029385899 -1.0084622e-06 0)
(0.029553856 1.0490662e-06 0)
(0.029399027 -9.7879458e-07 0)
(0.029542062 9.3388246e-07 0)
(0.029408959 -8.708318e-07 0)
(0.029532804 8.1747536e-07 0)
(0.029417352 -7.6014203e-07 0)
(0.029524801 7.1082572e-07 0)
(0.029424716 -6.6121622e-07 0)
(0.029517823 6.1666871e-07 0)
(0.029431205 -5.73545e-07 0)
(0.029511714 5.3375043e-07 0)
(0.029436916 -4.9588122e-07 0)
(0.029506348 4.6054808e-07 0)
(0.029441946 -4.2720391e-07 0)
(0.029501625 3.9599375e-07 0)
(0.029446377 -3.666766e-07 0)
(0.029497466 3.3925671e-07 0)
(0.029450282 -3.1358678e-07 0)
(0.0294938 2.8963896e-07 0)
(0.029453725 -2.6731357e-07 0)
(0.029490565 2.4656919e-07 0)
(0.029456765 -2.2730978e-07 0)
(0.029487706 2.0950384e-07 0)
(0.029459456 -1.9306629e-07 0)
(0.029485171 1.7796915e-07 0)
(0.029461849 -1.6414182e-07 0)
(0.029482909 1.5155487e-07 0)
(0.029463992 -1.4014311e-07 0)
(0.029480874 1.2988847e-07 0)
(0.029465931 -1.2074168e-07 0)
(0.029479022 1.1269431e-07 0)
(0.029467707 -1.0565875e-07 0)
(0.029477309 9.9674623e-08 0)
(0.029469364 -9.4848255e-08 0)
(0.029475706 9.0562002e-08 0)
(0.029470963 -8.603711e-08 0)
(0.029474088 9.7392372e-08 0)
(0.029471827 -7.127088e-08 0)
(0.025154797 0.0049796127 0)
(0.049252685 -0.00013188071 0)
(0.034705112 0.00026646506 0)
(0.037945731 -3.0674792e-05 0)
(0.035986775 4.119995e-05 0)
(0.035730885 -1.8721589e-07 0)
(0.03592635 8.6967758e-06 0)
(0.035400579 1.9237371e-06 0)
(0.035722147 2.3899587e-06 0)
(0.035393828 -5.167142e-07 0)
(0.035648577 1.4311094e-06 0)
(0.035414665 -1.1790042e-06 0)
(0.035623748 1.24938e-06 0)
(0.035431194 -1.170602e-06 0)
(0.035609288 1.1199925e-06 0)
(0.035443597 -1.0449223e-06 0)
(0.03559779 9.815536e-07 0)
(0.035454082 -9.1208456e-07 0)
(0.035587807 8.5320469e-07 0)
(0.035463289 -7.932024e-07 0)
(0.035579088 7.3977279e-07 0)
(0.035471405 -6.8776879e-07 0)
(0.035571449 6.3992242e-07 0)
(0.035478549 -5.9430197e-07 0)
(0.035564738 5.5177581e-07 0)
(0.035484837 -5.116294e-07 0)
(0.035558837 4.7405479e-07 0)
(0.035490372 -4.3876247e-07 0)
(0.035553644 4.0575311e-07 0)
(0.035495244 -3.7486326e-07 0)
(0.035549073 3.4603614e-07 0)
(0.035499534 -3.1917172e-07 0)
(0.035545047 2.9420557e-07 0)
(0.035503315 -2.7103558e-07 0)
(0.035541494 2.4961152e-07 0)
(0.035506657 -2.2984277e-07 0)
(0.035538349 2.1167405e-07 0)
(0.035509623 -1.9503821e-07 0)
(0.035535548 1.7989564e-07 0)
(0.035512273 -1.6616964e-07 0)
(0.035533034 1.5382591e-07 0)
(0.035514666 -1.4281939e-07 0)
(0.03553075 1.3313787e-07 0)
(0.035516854 -1.2466211e-07 0)
(0.035528642 1.1746346e-07 0)
(0.035518891 -1.1167851e-07 0)
(0.035526672 1.0635626e-07 0)
(0.035520854 -1.0097526e-07 0)
(0.035524712 1.1669515e-07 0)
(0.035522016 -8.110767e-08 0)
(0.029481284 0.0057492889 0)
(0.055471454 -0.00023600835 0)
(0.040417913 0.00033392944 0)
(0.044159767 -3.684817e-05 0)
(0.041880003 5.764625e-05 0)
(0.04160929 -2.3358459e-07 0)
(0.041851474 1.1338206e-05 0)
(0.041242681 2.8542011e-06 0)
(0.041633703 2.7865146e-06 0)
(0.041243898 -3.7940794e-07 0)
(0.041549794 1.6179223e-06 0)
(0.041270181 -1.3242651e-06 0)
(0.041521027 1.4280422e-06 0)
(0.04129019 -1.3456436e-06 0)
(0.041503905 1.2903786e-06 0)
(0.041305117 -1.2047774e-06 0)
(0.041490127 1.1322787e-06 0)
(0.041317748 -1.0514016e-06 0)
(0.041478118 9.8382361e-07 0)
(0.041328845 -9.1408777e-07 0)
(0.041467614 8.5249588e-07 0)
(0.041338629 -7.9222795e-07 0)
(0.041458407 7.3695339e-07 0)
(0.04134724 -6.8415219e-07 0)
(0.041450321 6.3498177e-07 0)
(0.041354816 -5.8854324e-07 0)
(0.041443215 5.450869e-07 0)
(0.041361478 -5.0427983e-07 0)
(0.04143697 4.6610729e-07 0)
(0.041367333 -4.3039333e-07 0)
(0.04143148 3.9705985e-07 0)
(0.041372482 -3.6601058e-07 0)
(0.041426651 3.3714918e-07 0)
(0.041377013 -3.1037327e-07 0)
(0.041422398 2.8560792e-07 0)
(0.04138101 -2.6275998e-07 0)
(0.041418639 2.4176319e-07 0)
(0.041384551 -2.2254588e-07 0)
(0.041415299 2.0504359e-07 0)
(0.041387708 -1.8917914e-07 0)
(0.041412306 1.749128e-07 0)
(0.041390554 -1.6219676e-07 0)
(0.041409593 1.5100347e-07 0)
(0.04139315 -1.4119716e-07 0)
(0.041407095 1.3288272e-07 0)
(0.041395561 -1.2622034e-07 0)
(0.041404763 1.1987398e-07 0)
(0.041397884 -1.1378081e-07 0)
(0.041402469 1.3406779e-07 0)
(0.041399358 -8.8266592e-08 0)
(0.033459965 0.0060006963 0)
(0.061191354 -0.00026523084 0)
(0.046093986 0.00039805826 0)
(0.049910263 -4.6343483e-05 0)
(0.047552177 7.4595023e-05 0)
(0.047300949 -8.333193e-07 0)
(0.047592191 1.4119362e-05 0)
(0.046910538 3.8282968e-06 0)
(0.047370958 3.131584e-06 0)
(0.046920758 -1.8155163e-07 0)
(0.047278044 1.7704299e-06 0)
(0.046952665 -1.4457384e-06 0)
(0.047245516 1.5850156e-06 0)
(0.046976196 -1.5043126e-06 0)
(0.047225746 1.445057e-06 0)
(0.046993681 -1.3504801e-06 0)
(0.047209663 1.2696317e-06 0)
(0.047008495 -1.1781034e-06 0)
(0.047195596 1.1026578e-06 0)
(0.047021514 -1.0238445e-06 0)
(0.04718328 9.5481975e-07 0)
(0.047032992 -8.8692709e-07 0)
(0.047172483 8.2485031e-07 0)
(0.04704309 -7.654433e-07 0)
(0.047163005 7.1017828e-07 0)
(0.047051968 -6.5796823e-07 0)
(0.047154682 6.0911815e-07 0)
(0.047059766 -5.6325076e-07 0)
(0.047147375 5.2034738e-07 0)
(0.047066612 -4.802226e-07 0)
(0.047140962 4.4276129e-07 0)
(0.047072622 -4.0787756e-07 0)
(0.04713533 3.7544801e-07 0)
(0.047077903 -3.4537214e-07 0)
(0.047130377 3.1755291e-07 0)
(0.047082553 -2.918975e-07 0)
(0.047126007 2.6830621e-07 0)
(0.047086665 -2.4671933e-07 0)
(0.047122132 2.2706289e-07 0)
(0.047090325 -2.0924785e-07 0)
(0.047118668 1.9321533e-07 0)
(0.047093615 -1.7893218e-07 0)
(0.047115534 1.6636213e-07 0)
(0.047096612 -1.5533453e-07 0)
(0.047112653 1.4600574e-07 0)
(0.047099388 -1.38542e-07 0)
(0.047109969 1.3120119e-07 0)
(0.047102058 -1.2456632e-07 0)
(0.047107354 1.4946034e-07 0)
(0.047103856 -9.2918538e-08 0)
(0.038456291 0.0069161145 0)
(0.065678355 -0.00039380132 0)
(0.051883327 0.00047770385 0)
(0.05511112 -5.5102248e-05 0)
(0.05300745 9.0690505e-05 0)
(0.052806462 -1.7629641e-06 0)
(0.053150263 1.7076879e-05 0)
(0.052405098 4.8143935e-06 0)
(0.052933672 3.4186015e-06 0)
(0.052424702 6.8630581e-08 0)
(0.052833219 1.8875856e-06 0)
(0.05246231 -1.5442297e-06 0)
(0.052797072 1.7200143e-06 0)
(0.052489373 -1.6465337e-06 0)
(0.052774669 1.5837578e-06 0)
(0.052509432 -1.4817691e-06 0)
(0.052756264 1.393326e-06 0)
(0.052526447 -1.2919296e-06 0)
(0.052740124 1.2094655e-06 0)
(0.052541405 -1.1222782e-06 0)
(0.052725984 1.0465507e-06 0)
(0.052554588 -9.7168063e-07 0)
(0.052713587 9.0344776e-07 0)
(0.052566181 -8.3803393e-07 0)
(0.052702711 7.7724793e-07 0)
(0.052576364 -7.1979958e-07 0)
(0.052693171 6.660608e-07 0)
(0.052585299 -6.1561574e-07 0)
(0.052684804 5.6842692e-07 0)
(0.052593132 -5.2430192e-07 0)
(0.052677471 4.8310162e-07 0)
(0.052599999 -4.4475239e-07 0)
(0.052671041 4.0909411e-07 0)
(0.052606023 -3.7603397e-07 0)
(0.052665396 3.4544702e-07 0)
(0.052611318 -3.1724287e-07 0)
(0.052660426 2.9131133e-07 0)
(0.052615991 -2.6759301e-07 0)
(0.052656025 2.4598385e-07 0)
(0.052620143 -2.2639901e-07 0)
(0.052652099 2.0877683e-07 0)
(0.052623867 -1.9308307e-07 0)
(0.052648556 1.7926164e-07 0)
(0.052627252 -1.6712968e-07 0)
(0.052645306 1.5689144e-07 0)
(0.052630381 -1.4870658e-07 0)
(0.052642281 1.4040719e-07 0)
(0.052633384 -1.333902e-07 0)
(0.052639361 1.6282002e-07 0)
(0.052635508 -9.52533e-08 0)
(0.042897185 0.007107196 0)
(0.069849406 -0.00044868174 0)
(0.057550626 0.00055112564 0)
(0.059872158 -6.2543641e-05 0)
(0.058274367 0.00010371893 0)
(0.058116172 -3.370009e-06 0)
(0.058525059 2.0035811e-05 0)
(0.057726113 5.730311e-06 0)
(0.058321599 3.6425446e-06 0)
(0.057755892 3.6004763e-07 0)
(0.058215214 1.9687019e-06 0)
(0.057799268 -1.620615e-06 0)
(0.058175565 1.8329079e-06 0)
(0.057829856 -1.7723612e-06 0)
(0.058150546 1.706335e-06 0)
(0.057852491 -1.5985348e-06 0)
(0.058129817 1.503215e-06 0)
(0.057871715 -1.3927737e-06 0)
(0.058111601 1.3041273e-06 0)
(0.057888614 -1.2092739e-06 0)
(0.058095635 1.1276016e-06 0)
(0.057903502 -1.0464379e-06 0)
(0.058081643 9.7270568e-07 0)
(0.057916585 -9.0189402e-07 0)
(0.058069376 8.3616617e-07 0)
(0.057928066 -7.7402945e-07 0)
(0.058058625 7.1591644e-07 0)
(0.057938128 -6.6137035e-07 0)
(0.058049209 6.1035148e-07 0)
(0.057946938 -5.6266142e-07 0)
(0.058040967 5.1811969e-07 0)
(0.057954649 -4.7667048e-07 0)
(0.058033753 4.3812519e-07 0)
(0.057961403 -4.0239946e-07 0)
(0.058027428 3.6934608e-07 0)
(0.05796733 -3.3887828e-07 0)
(0.05802187 3.1084873e-07 0)
(0.057972551 -2.852164e-07 0)
(0.058016959 2.6187156e-07 0)
(0.057977179 -2.4071415e-07 0)
(0.058012587 2.2166162e-07 0)
(0.057981323 -2.0470688e-07 0)
(0.058008648 1.8977769e-07 0)
(0.057985081 -1.766552e-07 0)
(0.058005044 1.656138e-07 0)
(0.057988547 -1.5678336e-07 0)
(0.058001695 1.4758294e-07 0)
(0.057991865 -1.4036014e-07 0)
(0.057998485 1.7413832e-07 0)
(0.057994314 -9.5478405e-08 0)
(0.047746534 0.0077704382 0)
(0.073282331 -0.00056510615 0)
(0.062846316 0.0005970777 0)
(0.06434608 -6.9665755e-05 0)
(0.063379619 0.00011285339 0)
(0.06321982 -5.6965784e-06 0)
(0.063716673 2.2812627e-05 0)
(0.062874661 6.5404706e-06 0)
(0.063534683 3.8014223e-06 0)
(0.06291456 6.8370329e-07 0)
(0.063423992 2.0136792e-06 0)
(0.062963698 -1.6753425e-06 0)
(0.063380891 1.9238754e-06 0)
(0.06299777 -1.881864e-06 0)
(0.06335327 1.8128432e-06 0)
(0.063022969 -1.7007609e-06 0)
(0.063330222 1.5993077e-06 0)
(0.063044393 -1.480642e-06 0)
(0.063309938 1.3866745e-06 0)
(0.063063223 -1.2848987e-06 0)
(0.06329216 1.1980261e-06 0)
(0.063079802 -1.1112423e-06 0)
(0.063276586 1.0326758e-06 0)
(0.063094361 -9.570871e-07 0)
(0.063262942 8.8700926e-07 0)
(0.063107124 -8.2073286e-07 0)
(0.063250997 7.587657e-07 0)
(0.063118296 -7.0061581e-07 0)
(0.063240549 6.4622399e-07 0)
(0.063128065 -5.9538723e-07 0)
(0.063231417 5.4790236e-07 0)
(0.063136603 -5.0373091e-07 0)
(0.063223435 4.6264514e-07 0)
(0.063144069 -4.245747e-07 0)
(0.06321645 3.8934528e-07 0)
(0.06315061 -3.5687517e-07 0)
(0.063210322 3.2700824e-07 0)
(0.063156361 -2.9970743e-07 0)
(0.063204918 2.7482918e-07 0)
(0.063161448 -2.5228186e-07 0)
(0.063200117 2.3198383e-07 0)
(0.063165993 -2.1392619e-07 0)
(0.063195802 1.980148e-07 0)
(0.063170106 -1.8402365e-07 0)
(0.063191861 1.7228583e-07 0)
(0.063173892 -1.628878e-07 0)
(0.063188205 1.5284483e-07 0)
(0.063177506 -1.4556648e-07 0)
(0.063184724 1.8343828e-07 0)
(0.063180273 -9.3840303e-08 0)
(0.052272219 0.007845771 0)
(0.076518834 -0.00063978662 0)
(0.067910421 0.00065423913 0)
(0.068671905 -7.1238343e-05 0)
(0.068346699 0.00011914411 0)
(0.068117228 -8.5641359e-06 0)
(0.068726666 2.5153653e-05 0)
(0.067851215 7.1824524e-06 0)
(0.06857285 3.8945178e-06 0)
(0.067900789 1.0277741e-06 0)
(0.068459495 2.021967e-06 0)
(0.067955715 -1.7088962e-06 0)
(0.068412947 1.9930785e-06 0)
(0.067993219 -1.9752177e-06 0)
(0.068382742 1.9033632e-06 0)
(0.068020957 -1.7885432e-06 0)
(0.06835739 1.6816889e-06 0)
(0.068044562 -1.5556487e-06 0)
(0.06833506 1.4572025e-06 0)
(0.068065301 -1.3492364e-06 0)
(0.068315492 1.2579316e-06 0)
(0.068083549 -1.1662301e-06 0)
(0.068298361 1.0834935e-06 0)
(0.068099559 -1.0037463e-06 0)
(0.068283365 9.299037e-07 0)
(0.06811358 -8.6004417e-07 0)
(0.06827025 7.9474199e-07 0)
(0.06812584 -7.3346669e-07 0)
(0.068258793 6.761608e-07 0)
(0.068136544 -6.2261618e-07 0)
(0.068248794 5.7258778e-07 0)
(0.068145886 -5.2605961e-07 0)
(0.068240067 4.8277542e-07 0)
(0.068154042 -4.426781e-07 0)
(0.068232443 4.0557503e-07 0)
(0.068161174 -3.7138932e-07 0)
(0.068225766 3.3992564e-07 0)
(0.068167434 -3.1116929e-07 0)
(0.06821989 2.8497818e-07 0)
(0.06817296 -2.6123932e-07 0)
(0.068214681 2.3984902e-07 0)
(0.068177886 -2.2084044e-07 0)
(0.068210009 2.0409317e-07 0)
(0.068182334 -1.8934528e-07 0)
(0.068205752 1.7701596e-07 0)
(0.06818642 -1.6712352e-07 0)
(0.068201808 1.5631959e-07 0)
(0.068190309 -1.4914611e-07 0)
(0.068198074 1.9077375e-07 0)
(0.068193385 -9.057745e-08 0)
(0.05769815 0.0084958937 0)
(0.079218726 -0.00075894597 0)
(0.072764056 0.00069892378 0)
(0.072848856 -7.4415066e-05 0)
(0.073158823 0.00012141357 0)
(0.072821906 -1.1600168e-05 0)
(0.073558883 2.6925353e-05 0)
(0.072656829 7.6415924e-06 0)
(0.073436186 3.933537e-06 0)
(0.072714676 1.384269e-06 0)
(0.07332172 1.9944142e-06 0)
(0.07277544 -1.7206913e-06 0)
(0.073271652 2.0410875e-06 0)
(0.072816294 -2.052473e-06 0)
(0.073238879 1.9781146e-06 0)
(0.072846537 -1.8619919e-06 0)
(0.073211249 1.7505274e-06 0)
(0.072872291 -1.6179468e-06 0)
(0.073186905 1.5158935e-06 0)
(0.072894907 -1.4025e-06 0)
(0.07316558 1.3075066e-06 0)
(0.072914791 -1.2115664e-06 0)
(0.073146923 1.1253255e-06 0)
(0.072932221 -1.0420427e-06 0)
(0.073130607 9.6502697e-07 0)
(0.072947469 -8.9213068e-07 0)
(0.073116352 8.2401181e-07 0)
(0.072960785 -7.6010695e-07 0)
(0.073103915 7.0034086e-07 0)
(0.072972397 -6.445009e-07 0)
(0.073093076 5.9232412e-07 0)
(0.072982517 -5.4381443e-07 0)
(0.073083631 4.9867504e-07 0)
(0.072991337 -4.5686695e-07 0)
(0.073075393 4.1817539e-07 0)
(0.072999036 -3.8253018e-07 0)
(0.073068191 3.4972913e-07 0)
(0.073005781 -3.1976359e-07 0)
(0.073061867 2.9245498e-07 0)
(0.073011723 -2.6770393e-07 0)
(0.073056271 2.4541111e-07 0)
(0.073017008 -2.2560433e-07 0)
(0.073051265 2.0814286e-07 0)
(0.073021769 -1.9276169e-07 0)
(0.073046713 1.799445e-07 0)
(0.073026133 -1.6963186e-07 0)
(0.073042502 1.5814319e-07 0)
(0.073030275 -1.512004e-07 0)
(0.073038536 1.9621482e-07 0)
(0.073033648 -8.5951082e-08 0)
(0.062340657 0.0084468657 0)
(0.081876512 -0.00083208844 0)
(0.07748506 0.00073620806 0)
(0.076886152 -7.6889527e-05 0)
(0.07780811 0.00012061342 0)
(0.077353627 -1.4587516e-05 0)
(0.078217002 2.8054158e-05 0)
(0.077292076 7.9001633e-06 0)
(0.07812478 3.9261727e-06 0)
(0.077356243 1.7421138e-06 0)
(0.078010633 1.9294284e-06 0)
(0.077422964 -1.710442e-06 0)
(0.077956931 2.0683102e-06 0)
(0.077467071 -2.1138021e-06 0)
(0.077921609 2.0373096e-06 0)
(0.077499773 -1.9213224e-06 0)
(0.077891738 1.8060438e-06 0)
(0.077527636 -1.6677821e-06 0)
(0.077865421 1.5629661e-06 0)
(0.077552086 -1.4448847e-06 0)
(0.077842381 1.3469675e-06 0)
(0.077573566 -1.2474923e-06 0)
(0.077822238 1.1584038e-06 0)
(0.077592377 -1.0721977e-06 0)
(0.077804638 9.9258585e-07 0)
(0.077608816 -9.1720202e-07 0)
(0.07778928 8.4677733e-07 0)
(0.077623155 -7.8071101e-07 0)
(0.077775896 7.1893593e-07 0)
(0.077635643 -6.6123289e-07 0)
(0.077764248 6.0730004e-07 0)
(0.077646509 -5.571663e-07 0)
(0.077754114 5.1050708e-07 0)
(0.077655964 -4.6729843e-07 0)
(0.077745289 4.2731478e-07 0)
(0.077664205 -3.9049164e-07 0)
(0.07773759 3.5658695e-07 0)
(0.077671408 -3.2561549e-07 0)
(0.077730841 2.9740985e-07 0)
(0.077677741 -2.7184119e-07 0)
(0.077724884 2.4878776e-07 0)
(0.077683362 -2.2833558e-07 0)
(0.077719566 2.1030497e-07 0)
(0.077688414 -1.9439678e-07 0)
(0.077714742 1.8119214e-07 0)
(0.077693035 -1.7053022e-07 0)
(0.077710285 1.5845776e-07 0)
(0.077697407 -1.5187789e-07 0)
(0.077706108 1.9985262e-07 0)
(0.07770106 -8.0198411e-08 0)
(0.06815309 0.0090125274 0)
(0.084188203 -0.00093808048 0)
(0.082088353 0.00076175838 0)
(0.080775082 -7.9292749e-05 0)
(0.082285261 0.00011655351 0)
(0.081725372 -1.7645404e-05 0)
(0.082703064 2.856165e-05 0)
(0.081757894 7.9769227e-06 0)
(0.082638661 3.8914191e-06 0)
(0.081825659 2.096137e-06 0)
(0.082526195 1.8272451e-06 0)
(0.081898373 -1.6766851e-06 0)
(0.082468726 2.0756854e-06 0)
(0.081945613 -2.1592067e-06 0)
(0.082430874 2.0813171e-06 0)
(0.08198072 -1.9667588e-06 0)
(0.082398806 1.8485365e-06 0)
(0.08201064 -1.7054299e-06 0)
(0.082370567 1.5987188e-06 0)
(0.082036877 -1.476718e-06 0)
(0.082345862 1.3766035e-06 0)
(0.082059905 -1.274262e-06 0)
(0.082324279 1.1829773e-06 0)
(0.082080052 -1.0944588e-06 0)
(0.082305439 1.0128289e-06 0)
(0.082097641 -9.3548908e-07 0)
(0.082289016 8.632636e-07 0)
(0.082112965 -7.9551952e-07 0)
(0.082274722 7.3217614e-07 0)
(0.082126293 -6.730081e-07 0)
(0.082262299 6.1770315e-07 0)
(0.082137873 -5.6631087e-07 0)
(0.082251507 5.1846576e-07 0)
(0.082147933 -4.7416239e-07 0)
(0.082242126 4.3316062e-07 0)
(0.082156685 -3.9540537e-07 0)
(0.082233956 3.6065052e-07 0)
(0.082164321 -3.2891643e-07 0)
(0.082226811 2.9999658e-07 0)
(0.082171019 -2.7378381e-07 0)
(0.082220517 2.5016316e-07 0)
(0.082176951 -2.2920716e-07 0)
(0.082214912 2.1072288e-07 0)
(0.08218227 -1.9441135e-07 0)
(0.082209838 1.8091638e-07 0)
(0.082187124 -1.6997438e-07 0)
(0.082205159 1.574061e-07 0)
(0.082191703 -1.512829e-07 0)
(0.08220079 2.0178821e-07 0)
(0.082195619 -7.3573276e-08 0)
(0.072678116 0.008810127 0)
(0.086487873 -0.0010180404 0)
(0.086584695 0.0007803191 0)
(0.084537149 -8.0561722e-05 0)
(0.086590475 0.00010951941 0)
(0.085943443 -2.0758825e-05 0)
(0.087017869 2.8516875e-05 0)
(0.086054706 7.8902849e-06 0)
(0.086977414 3.8392052e-06 0)
(0.086123496 2.436125e-06 0)
(0.086868287 1.6883522e-06 0)
(0.086201743 -1.618825e-06 0)
(0.086806992 2.063977e-06 0)
(0.086251971 -2.1888196e-06 0)
(0.086766626 2.1104867e-06 0)
(0.08628942 -1.9986262e-06 0)
(0.086732414 1.8783451e-06 0)
(0.086321338 -1.7312488e-06 0)
(0.086702313 1.62347e-06 0)
(0.086349305 -1.4982837e-06 0)
(0.086675997 1.3967151e-06 0)
(0.086373828 -1.2921977e-06 0)
(0.086653027 1.1993512e-06 0)
(0.086395264 -1.1091129e-06 0)
(0.086632993 1.0260212e-06 0)
(0.086413957 -9.472559e-07 0)
(0.086615548 8.7372167e-07 0)
(0.086430225 -8.0474805e-07 0)
(0.086600383 7.4027107e-07 0)
(0.086444355 -6.8005578e-07 0)
(0.086587222 6.2375649e-07 0)
(0.086456614 -5.7144883e-07 0)
(0.086575806 5.2274148e-07 0)
(0.086467246 -4.7764186e-07 0)
(0.086565901 4.3590715e-07 0)
(0.08647648 -3.9749017e-07 0)
(0.086557289 3.6210759e-07 0)
(0.08648452 -3.2980101e-07 0)
(0.086549774 3.003852e-07 0)
(0.086491557 -2.7371435e-07 0)
(0.086543169 2.4965278e-07 0)
(0.086497774 -2.2834616e-07 0)
(0.086537301 2.0954782e-07 0)
(0.086503336 -1.9293095e-07 0)
(0.086532002 1.7924015e-07 0)
(0.086508402 -1.6808659e-07 0)
(0.086527122 1.5513719e-07 0)
(0.086513164 -1.4956836e-07 0)
(0.086522582 2.0213561e-07 0)
(0.086517325 -6.6294243e-08 0)
(0.079012865 0.0093504063 0)
(0.088647242 -0.0010955278 0)
(0.090911318 0.00078889333 0)
(0.088216378 -8.1124073e-05 0)
(0.090733908 9.9759564e-05 0)
(0.090008074 -2.3913551e-05 0)
(0.091161634 2.8025475e-05 0)
(0.090182549 7.6712224e-06 0)
(0.091140372 3.7851896e-06 0)
(0.090250691 2.7484628e-06 0)
(0.091036686 1.5184731e-06 0)
(0.090333134 -1.5368723e-06 0)
(0.090971694 2.0342396e-06 0)
(0.090386188 -2.2027058e-06 0)
(0.09092883 2.1252847e-06 0)
(0.090425904 -2.0172593e-06 0)
(0.090892536 1.8958683e-06 0)
(0.090459755 -1.7456116e-06 0)
(0.090860637 1.6376054e-06 0)
(0.090489389 -1.5099955e-06 0)
(0.090832772 1.4076639e-06 0)
(0.090515351 -1.3016163e-06 0)
(0.090808469 1.207831e-06 0)
(0.090538021 -1.1164597e-06 0)
(0.090787292 1.0324592e-06 0)
(0.090557771 -9.5277525e-07 0)
(0.090768871 8.7841461e-07 0)
(0.090574939 -8.0867451e-07 0)
(0.090752877 7.4348363e-07 0)
(0.090589832 -6.8259795e-07 0)
(0.090739014 6.2567082e-07 0)
(0.090602734 -5.7279782e-07 0)
(0.09072701 5.2354822e-07 0)
(0.090613905 -4.7794471e-07 0)
(0.090716611 4.3573596e-07 0)
(0.090623589 -3.9688852e-07 0)
(0.090707588 3.611216e-07 0)
(0.090632005 -3.2847955e-07 0)
(0.090699731 2.9873346e-07 0)
(0.090639354 -2.7177101e-07 0)
(0.090692841 2.4746448e-07 0)
(0.090645831 -2.2593183e-07 0)
(0.090686734 2.0692766e-07 0)
(0.090651613 -1.9012913e-07 0)
(0.090681233 1.7633025e-07 0)
(0.090656866 -1.6502751e-07 0)
(0.090676175 1.5179069e-07 0)
(0.090661789 -1.4683565e-07 0)
(0.090671484 2.0101401e-07 0)
(0.090666175 -5.8592945e-08 0)
(0.083277899 0.0090636836 0)
(0.090772802 -0.0011838163 0)
(0.095018291 0.00078681387 0)
(0.091875893 -7.9892345e-05 0)
(0.094724732 8.8186075e-05 0)
(0.093917505 -2.7016331e-05 0)
(0.095134915 2.7190518e-05 0)
(0.094140938 7.3505278e-06 0)
(0.095127338 3.740011e-06 0)
(0.094207947 3.0183816e-06 0)
(0.095031101 1.3277687e-06 0)
(0.094292557 -1.4328763e-06 0)
(0.094962804 1.9872541e-06 0)
(0.094348292 -2.2010829e-06 0)
(0.094917463 2.12614e-06 0)
(0.094390194 -2.0230859e-06 0)
(0.094879153 1.9015316e-06 0)
(0.094425905 -1.7489612e-06 0)
(0.094845527 1.6415131e-06 0)
(0.094457141 -1.5121968e-06 0)
(0.094816178 1.409807e-06 0)
(0.094484479 -1.3028937e-06 0)
(0.094790599 1.2087691e-06 0)
(0.094508329 -1.1168277e-06 0)
(0.094768332 1.0324441e-06 0)
(0.094529086 -9.5234458e-07 0)
(0.094748983 8.7762267e-07 0)
(0.094547109 -8.0753738e-07 0)
(0.094732202 7.4204405e-07 0)
(0.094562724 -6.808852e-07 0)
(0.094717677 6.2368798e-07 0)
(0.094576232 -5.705735e-07 0)
(0.094705119 5.2108957e-07 0)
(0.094587908 -4.7526672e-07 0)
(0.094694261 4.3285525e-07 0)
(0.094598011 -3.9383165e-07 0)
(0.094684857 3.5788719e-07 0)
(0.094606773 -3.2508455e-07 0)
(0.094676684 2.9522323e-07 0)
(0.094614408 -2.6814177e-07 0)
(0.094669536 2.4369729e-07 0)
(0.09462112 -2.2209314e-07 0)
(0.094663215 2.0301348e-07 0)
(0.094627097 -1.8612064e-07 0)
(0.094657535 1.7230217e-07 0)
(0.094632516 -1.6091634e-07 0)
(0.094652321 1.4751526e-07 0)
(0.094637577 -1.4323523e-07 0)
(0.094647499 1.9854759e-07 0)
(0.094642168 -5.0657432e-08 0)
(0.089184655 0.0094105291 0)
(0.092966464 -0.0012257498 0)
(0.098859818 0.00077787089 0)
(0.095514064 -7.8043472e-05 0)
(0.098561193 7.5393117e-05 0)
(0.097669064 -2.9961496e-05 0)
(0.098937487 2.6085332e-05 0)
(0.09792908 6.9564606e-06 0)
(0.09893877 3.7029686e-06 0)
(0.097995286 3.2357589e-06 0)
(0.098851265 1.1296987e-06 0)
(0.098079957 -1.3101279e-06 0)
(0.098780294 1.9237519e-06 0)
(0.098138296 -2.1841155e-06 0)
(0.098732507 2.1135686e-06 0)
(0.098182302 -2.016538e-06 0)
(0.098692253 1.8957977e-06 0)
(0.098219797 -1.7417421e-06 0)
(0.098656975 1.6356351e-06 0)
(0.098252564 -1.5053602e-06 0)
(0.09862621 1.4035512e-06 0)
(0.098281215 -1.296385e-06 0)
(0.098599419 1.2025045e-06 0)
(0.098306187 -1.1105474e-06 0)
(0.098576116 1.0263001e-06 0)
(0.098327899 -9.462599e-07 0)
(0.098555887 8.7162954e-07 0)
(0.098346731 -8.0163537e-07 0)
(0.098538363 7.3623246e-07 0)
(0.098363027 -6.7515106e-07 0)
(0.098523215 6.1802808e-07 0)
(0.098377104 -5.6500209e-07 0)
(0.098510139 5.1558587e-07 0)
(0.098389251 -4.6982056e-07 0)
(0.098498853 4.2744903e-07 0)
(0.098399741 -3.8846382e-07 0)
(0.098489098 3.525711e-07 0)
(0.09840882 -3.1983475e-07 0)
(0.098480639 2.900036e-07 0)
(0.098416714 -2.629634e-07 0)
(0.098473257 2.3857784e-07 0)
(0.098423637 -2.1700433e-07 0)
(0.098466746 1.9795116e-07 0)
(0.098429786 -1.8108714e-07 0)
(0.09846091 1.6732441e-07 0)
(0.098435349 -1.5591029e-07 0)
(0.098455562 1.4243941e-07 0)
(0.098440527 -1.388605e-07 0)
(0.098450627 1.9486306e-07 0)
(0.098445303 -4.2687545e-08 0)
(0.093409696 0.0091567005 0)
(0.095032085 -0.0013135356 0)
(0.10246296 0.00075473894 0)
(0.099107519 -7.6971147e-05 0)
(0.10223936 6.2360957e-05 0)
(0.10126107 -3.263396e-05 0)
(0.10256948 2.4804355e-05 0)
(0.10154646 6.5265891e-06 0)
(0.10257541 3.6708953e-06 0)
(0.10161237 3.39716e-06 0)
(0.10249705 9.3789655e-07 0)