/*--------------------------------*- C++ -*----------------------------------*\
| =========                 |                                                 |
| \\      /  F ield         | OpenFOAM: The Open Source CFD Toolbox           |
|  \\    /   O peration     | Version:  2312                                  |
|   \\  /    A nd           | Website:  www.openfoam.com                      |
|    \\/     M anipulation  |                                                 |
\*---------------------------------------------------------------------------*/
FoamFile
{
    version     2.0;
    format      ascii;
    arch        "LSB;label=32;scalar=64";
    class       volVectorField;
    location    "3";
    object      U_0;
}
// * * * * * * * * * * * * * * * * * * * * * * * * * * * * * * * * * * * * * //

dimensions      [0 1 -1 0 0 0 0];

internalField   nonuniform List<vector> 
4000
(
(0.0025961678 0.00052990022 0)
(0.0063860152 -1.7907562e-05 0)
(0.003154471 -5.6745871e-07 0)
(0.0038605464 -7.0335871e-07 0)
(0.0036036447 8.7768493e-08 0)
(0.0035861348 -1.9414479e-07 0)
(0.0035869 9.3784269e-08 0)
(0.0035377406 -1.56075e-07 0)
(0.0035622713 1.123834e-07 0)
(0.0035325255 -1.1742176e-07 0)
(0.0035543966 1.0285654e-07 0)
(0.0035336948 -9.7158287e-08 0)
(0.0035517239 8.9812558e-08 0)
(0.0035350461 -8.3804572e-08 0)
(0.0035503319 7.8105063e-08 0)
(0.0035361053 -7.2918024e-08 0)
(0.003549318 6.8051841e-08 0)
(0.0035369891 -6.3539819e-08 0)
(0.0035484693 5.9287684e-08 0)
(0.0035377581 -5.5313768e-08 0)
(0.0035477382 5.1576549e-08 0)
(0.0035384324 -4.8062273e-08 0)
(0.003547101 4.4763438e-08 0)
(0.0035390255 -4.1653471e-08 0)
(0.0035465414 3.8738239e-08 0)
(0.003539549 -3.5989528e-08 0)
(0.0035460475 3.3417681e-08 0)
(0.0035400123 -3.0996065e-08 0)
(0.0035456101 2.8735824e-08 0)
(0.003540423 -2.6612962e-08 0)
(0.0035452221 2.4637955e-08 0)
(0.0035407876 -2.2789054e-08 0)
(0.0035448775 2.1076094e-08 0)
(0.0035411118 -1.9479613e-08 0)
(0.0035445707 1.8008257e-08 0)
(0.0035414008 -1.66449e-08 0)
(0.0035442969 1.5396601e-08 0)
(0.0035416593 -1.4248611e-08 0)
(0.0035440511 1.3207395e-08 0)
(0.0035418923 -1.2260258e-08 0)
(0.0035438289 1.1412349e-08 0)
(0.003542104 -1.0652853e-08 0)
(0.0035436258 9.9864421e-09 0)
(0.0035422986 -9.4054171e-09 0)
(0.0035434376 8.9114184e-09 0)
(0.0035424809 -8.497576e-09 0)
(0.0035432615 8.1862992e-09 0)
(0.0035426504 -7.912008e-09 0)
(0.0035430577 7.7037382e-09 0)
(0.0035426753 -8.3693803e-09 0)
(0.0067242902 0.00147933 0)
(0.016808165 2.932165e-06 0)
(0.0099482333 3.404759e-05 0)
(0.011041857 -5.2466194e-06 0)
(0.010470917 3.9945503e-06 0)
(0.010387918 -2.8733489e-07 0)
(0.01041306 1.107941e-06 0)
(0.010266672 -1.3336611e-07 0)
(0.010340576 5.0274171e-07 0)
(0.010253924 -3.0413726e-07 0)
(0.010317896 3.6727933e-07 0)
(0.010257588 -3.2305453e-07 0)
(0.010310431 3.1689444e-07 0)
(0.010261563 -2.9446305e-07 0)
(0.010306482 2.7805271e-07 0)
(0.010264665 -2.5928649e-07 0)
(0.010303535 2.4280621e-07 0)
(0.010267272 -2.262746e-07 0)
(0.010301037 2.1138046e-07 0)
(0.01026955 -1.9694141e-07 0)
(0.010298873 1.8365302e-07 0)
(0.010271554 -1.7097363e-07 0)
(0.010296983 1.5916554e-07 0)
(0.010273319 -1.4797886e-07 0)
(0.010295321 1.3751423e-07 0)
(0.010274877 -1.2764152e-07 0)
(0.010293855 1.1840178e-07 0)
(0.010276254 -1.0971238e-07 0)
(0.010292559 1.0159325e-07 0)
(0.010277472 -9.3981266e-08 0)
(0.010291412 8.6890659e-08 0)
(0.01027855 -8.0268895e-08 0)
(0.010290396 7.4124793e-08 0)
(0.010279507 -6.8411813e-08 0)
(0.010289494 6.313812e-08 0)
(0.010280357 -5.8262509e-08 0)
(0.010288691 5.3792471e-08 0)
(0.010281116 -4.9692114e-08 0)
(0.010287971 4.5966377e-08 0)
(0.010281799 -4.2585241e-08 0)
(0.010287321 3.9552727e-08 0)
(0.010282419 -3.6845198e-08 0)
(0.010286728 3.4467184e-08 0)
(0.010282989 -3.2393214e-08 0)
(0.010286177 3.0628798e-08 0)
(0.010283522 -2.9182476e-08 0)
(0.010285661 2.8030751e-08 0)
(0.010284031 -2.6742044e-08 0)
(0.010285107 2.8328425e-08 0)
(0.010284199 -2.3845654e-08 0)
(0.012965913 0.0028889959 0)
(0.025887506 -1.8856705e-05 0)
(0.016475697 7.5309659e-05 0)
(0.01803622 -9.2401966e-06 0)
(0.017143007 9.5432872e-06 0)
(0.017002167 -3.0993154e-07 0)
(0.017061135 2.4735611e-06 0)
(0.016817046 3.7212785e-08 0)
(0.016945719 9.7407785e-07 0)
(0.016800641 -4.7999589e-07 0)
(0.01690899 6.6906347e-07 0)
(0.016807671 -5.7598615e-07 0)
(0.016896908 5.7622765e-07 0)
(0.016814497 -5.3549741e-07 0)
(0.016890386 5.0757603e-07 0)
(0.016819742 -4.732666e-07 0)
(0.016885443 4.4362059e-07 0)
(0.016824154 -4.1316228e-07 0)
(0.016881223 3.8612583e-07 0)
(0.016828018 -3.5958439e-07 0)
(0.016877555 3.353447e-07 0)
(0.016831424 -3.1209613e-07 0)
(0.016874344 2.9050171e-07 0)
(0.016834426 -2.7000606e-07 0)
(0.016871519 2.5084646e-07 0)
(0.016837076 -2.3276553e-07 0)
(0.016869028 2.1584243e-07 0)
(0.016839416 -1.9992959e-07 0)
(0.016866829 1.850584e-07 0)
(0.016841483 -1.7112291e-07 0)
(0.016864885 1.5813667e-07 0)
(0.016843311 -1.4601441e-07 0)
(0.016863165 1.3476329e-07 0)
(0.01684493 -1.2430639e-07 0)
(0.016861641 1.1465141e-07 0)
(0.016846366 -1.0573016e-07 0)
(0.016860286 9.7544236e-08 0)
(0.016847646 -9.0038389e-08 0)
(0.016859074 8.3216756e-08 0)
(0.016848796 -7.7027898e-08 0)
(0.016857981 7.1473507e-08 0)
(0.016849839 -6.6513724e-08 0)
(0.016856982 6.2157127e-08 0)
(0.016850797 -5.8353218e-08 0)
(0.016856057 5.5117391e-08 0)
(0.016851694 -5.2476636e-08 0)
(0.01685519 5.0290887e-08 0)
(0.016852555 -4.7906965e-08 0)
(0.016854285 5.1828045e-08 0)
(0.016852915 -4.1629896e-08 0)
(0.015257114 0.0031089238 0)
(0.034187429 -9.132625e-05 0)
(0.022791977 0.00012972639 0)
(0.024850006 -1.4359584e-05 0)
(0.023620725 1.7584268e-05 0)
(0.023429579 -2.4659439e-07 0)
(0.023530503 4.239848e-06 0)
(0.023189078 4.6252908e-07 0)
(0.02337782 1.4672219e-06 0)
(0.02317275 -5.741964e-07 0)
(0.023327806 9.5409896e-07 0)
(0.023183867 -8.0606311e-07 0)
(0.023311281 8.2269142e-07 0)
(0.023193752 -7.655847e-07 0)
(0.023302157 7.2832115e-07 0)
(0.023201252 -6.7915339e-07 0)
(0.023295136 6.3718726e-07 0)
(0.023207569 -5.9305364e-07 0)
(0.023289102 5.5445199e-07 0)
(0.023213112 -5.1608271e-07 0)
(0.023283843 4.8129705e-07 0)
(0.023218002 -4.4777087e-07 0)
(0.023279232 4.1670778e-07 0)
(0.023222315 -3.8718373e-07 0)
(0.023275175 3.5959557e-07 0)
(0.02322612 -3.3356175e-07 0)
(0.023271599 3.0918599e-07 0)
(0.023229478 -2.8628164e-07 0)
(0.023268445 2.6486223e-07 0)
(0.023232441 -2.4480461e-07 0)
(0.023265661 2.2610211e-07 0)
(0.023235057 -2.0866114e-07 0)
(0.023263202 1.9246194e-07 0)
(0.023237369 -1.7741847e-07 0)
(0.023261027 1.6351762e-07 0)
(0.023239417 -1.5068125e-07 0)
(0.023259096 1.3889854e-07 0)
(0.023241241 -1.2810307e-07 0)
(0.023257372 1.1828216e-07 0)
(0.023242875 -1.0937678e-07 0)
(0.023255819 1.0137759e-07 0)
(0.023244355 -9.4242561e-08 0)
(0.023254404 8.7968434e-08 0)
(0.023245713 -8.2486098e-08 0)
(0.023253094 7.7823152e-08 0)
(0.023246981 -7.4039286e-08 0)
(0.023251867 7.0789407e-08 0)
(0.023248204 -6.7328176e-08 0)
(0.023250612 7.4501587e-08 0)
(0.023248801 -5.7021405e-08 0)
(0.021081952 0.0044302243 0)
(0.042102481 -8.9314615e-05 0)
(0.028836527 0.00019437535 0)
(0.031489174 -2.1725959e-05 0)
(0.029903832 2.8152822e-05 0)
(0.029671956 -1.532046e-07 0)
(0.029819662 6.3402388e-06 0)
(0.0293832 1.1116835e-06 0)
(0.029636669 1.9438333e-06 0)
(0.029370471 -5.8184127e-07 0)
(0.02957425 1.2068455e-06 0)
(0.029386279 -1.004286e-06 0)
(0.029553464 1.045318e-06 0)
(0.0293994 -9.7546564e-07 0)
(0.029541717 9.3106157e-07 0)
(0.029409262 -8.6846401e-07 0)
(0.029532537 8.1544879e-07 0)
(0.02941758 -7.5844181e-07 0)
(0.029524603 7.0931943e-07 0)
(0.029424889 -6.598557e-07 0)
(0.029517671 6.1537892e-07 0)
(0.029431342 -5.7228474e-07 0)
(0.029511588 5.3247236e-07 0)
(0.029437034 -4.9456344e-07 0)
(0.029506235 4.5917111e-07 0)
(0.029442054 -4.2576494e-07 0)
(0.02950152 3.9448711e-07 0)
(0.02944648 -3.6510275e-07 0)
(0.029497366 3.3762114e-07 0)
(0.02945038 -3.1189988e-07 0)
(0.029493705 2.8790748e-07 0)
(0.029453817 -2.6554371e-07 0)
(0.029490477 2.4476695e-07 0)
(0.02945685 -2.2548144e-07 0)
(0.029487626 2.0765707e-07 0)
(0.029459532 -1.9120672e-07 0)
(0.0294851 1.760946e-07 0)
(0.029461915 -1.6225473e-07 0)
(0.029482849 1.4966191e-07 0)
(0.029464047 -1.3824661e-07 0)
(0.029480825 1.2798659e-07 0)
(0.029465975 -1.1883548e-07 0)
(0.029478984 1.1078886e-07 0)
(0.029467739 -1.0375035e-07 0)
(0.029477283 9.7771209e-08 0)
(0.029469384 -9.2937926e-08 0)
(0.029475692 8.8636117e-08 0)
(0.029470972 -8.4218257e-08 0)
(0.029474091 9.524725e-08 0)
(0.029471839 -6.9338065e-08 0)
(0.024885325 0.0049837602 0)
(0.04904484 -0.00019433155 0)
(0.034702087 0.00026412532 0)
(0.037944525 -3.0706133e-05 0)
(0.035987955 4.1181716e-05 0)
(0.035730045 -1.8530877e-07 0)
(0.035926532 8.6963936e-06 0)
(0.035400643 1.9235421e-06 0)
(0.035721925 2.3860995e-06 0)
(0.035394238 -5.1186291e-07 0)
(0.035648108 1.4264008e-06 0)
(0.03541517 -1.1741257e-06 0)
(0.035623252 1.2451725e-06 0)
(0.035431653 -1.1669329e-06 0)
(0.035608873 1.1169256e-06 0)
(0.035443957 -1.0423576e-06 0)
(0.035597473 9.7933475e-07 0)
(0.035454355 -9.1021051e-07 0)
(0.035587569 8.5151082e-07 0)
(0.035463499 -7.9165148e-07 0)
(0.035578899 7.3826295e-07 0)
(0.035471577 -6.8626198e-07 0)
(0.035571287 6.3837334e-07 0)
(0.035478701 -5.9269263e-07 0)
(0.035564591 5.5008799e-07 0)
(0.03548498 -5.0985975e-07 0)
(0.035558698 4.7220107e-07 0)
(0.035490508 -4.3683229e-07 0)
(0.035553511 4.0374901e-07 0)
(0.035495374 -3.727927e-07 0)
(0.035548948 3.4391329e-07 0)
(0.035499656 -3.1700878e-07 0)
(0.03554493 2.920074e-07 0)
(0.035503427 -2.68809e-07 0)
(0.035541389 2.4736081e-07 0)
(0.035506757 -2.2756975e-07 0)
(0.035538256 2.0939006e-07 0)
(0.035509709 -1.9274701e-07 0)
(0.035535469 1.7759564e-07 0)
(0.035512345 -1.6386196e-07 0)
(0.035532969 1.5151429e-07 0)
(0.035514723 -1.4050931e-07 0)
(0.0355307 1.3082583e-07 0)
(0.035516896 -1.2234652e-07 0)
(0.035528607 1.1515398e-07 0)
(0.035518918 -1.0936111e-07 0)
(0.035526653 1.0401802e-07 0)
(0.035520867 -9.8775196e-08 0)
(0.035524713 1.1404244e-07 0)
(0.035522029 -7.8748198e-08 0)
(0.029310738 0.0054966797 0)
(0.055652731 -0.0002073347 0)
(0.040411814 0.00033461716 0)
(0.044155509 -3.7077207e-05 0)
(0.041881167 5.7638635e-05 0)
(0.041608419 -2.3809908e-07 0)
(0.041851421 1.1332789e-05 0)
(0.041243015 2.8550824e-06 0)
(0.041633286 2.781817e-06 0)
(0.041244481 -3.7367532e-07 0)
(0.041549186 1.6127866e-06 0)
(0.041270801 -1.3189828e-06 0)
(0.041520438 1.4236353e-06 0)
(0.041290724 -1.3418388e-06 0)
(0.041503427 1.2872208e-06 0)
(0.04130553 -1.2021309e-06 0)
(0.041489763 1.1299423e-06 0)
(0.041318064 -1.0494082e-06 0)
(0.041477838 9.8196704e-07 0)
(0.041329095 -9.1234381e-07 0)
(0.041467386 8.5076773e-07 0)
(0.041338841 -7.9048476e-07 0)
(0.041458207 7.3514081e-07 0)
(0.041347432 -6.8225587e-07 0)
(0.041450136 6.3298441e-07 0)
(0.041354997 -5.8644962e-07 0)
(0.041443039 5.428945e-07 0)
(0.04136165 -5.0199323e-07 0)
(0.041436801 4.6373745e-07 0)
(0.041367498 -4.2795582e-07 0)
(0.041431321 3.9456529e-07 0)
(0.041372636 -3.6346892e-07 0)
(0.041426504 3.3456835e-07 0)
(0.041377154 -3.0776133e-07 0)
(0.041422265 2.8297436e-07 0)
(0.041381136 -2.6011238e-07 0)
(0.041418522 2.3909742e-07 0)
(0.04138466 -2.1986507e-07 0)
(0.041415199 2.0235604e-07 0)
(0.0413878 -1.8648838e-07 0)
(0.041412224 1.7221486e-07 0)
(0.041390627 -1.5949423e-07 0)
(0.04140953 1.48303e-07 0)
(0.041393204 -1.3849241e-07 0)
(0.041407051 1.3018798e-07 0)
(0.041395596 -1.2351139e-07 0)
(0.041404737 1.1714399e-07 0)
(0.0413979 -1.1123672e-07 0)
(0.041402469 1.3092465e-07 0)
(0.041399373 -8.5498022e-08 0)
(0.033996782 0.0064118478 0)
(0.061044873 -0.00030661988 0)
(0.046090938 0.00039585607 0)
(0.049909433 -4.6509573e-05 0)
(0.047553228 7.4544274e-05 0)
(0.047300385 -8.1820162e-07 0)
(0.047591858 1.4108921e-05 0)
(0.046911143 3.8291932e-06 0)
(0.047370352 3.1267965e-06 0)
(0.046921499 -1.7531555e-07 0)
(0.047277313 1.7652533e-06 0)
(0.046953385 -1.440325e-06 0)
(0.047244845 1.5806389e-06 0)
(0.046976797 -1.5005463e-06 0)
(0.047225211 1.4419312e-06 0)
(0.046994145 -1.3478284e-06 0)
(0.047209252 1.2672235e-06 0)
(0.047008855 -1.1760131e-06 0)
(0.047195273 1.1006562e-06 0)
(0.047021807 -1.0219354e-06 0)
(0.047183009 9.5288161e-07 0)
(0.047033247 -8.8493953e-07 0)
(0.04717224 8.227678e-07 0)
(0.047043325 -7.6325868e-07 0)
(0.047162776 7.0787771e-07 0)
(0.047052191 -6.5555512e-07 0)
(0.047154464 6.0659484e-07 0)
(0.047059979 -5.6063077e-07 0)
(0.047147168 5.1763639e-07 0)
(0.047066814 -4.7743036e-07 0)
(0.047140766 4.3990716e-07 0)
(0.047072811 -4.0497857e-07 0)
(0.047135149 3.7251021e-07 0)
(0.047078075 -3.4240311e-07 0)
(0.047130214 3.1455658e-07 0)
(0.047082707 -2.8887576e-07 0)
(0.047125864 2.6527323e-07 0)
(0.047086798 -2.436802e-07 0)
(0.04712201 2.2401293e-07 0)
(0.047090437 -2.0618892e-07 0)
(0.047118567 1.9015354e-07 0)
(0.047093705 -1.7587311e-07 0)
(0.047115456 1.6330029e-07 0)
(0.047096679 -1.5226859e-07 0)
(0.047112598 1.4295155e-07 0)
(0.047099432 -1.3547192e-07 0)
(0.047109936 1.2810575e-07 0)
(0.04710208 -1.2168911e-07 0)
(0.047107351 1.4584147e-07 0)
(0.047103872 -8.9773442e-08 0)
(0.038163244 0.0066069295 0)
(0.065801629 -0.00037481983 0)
(0.051880839 0.00047806965 0)
(0.055108921 -5.5375858e-05 0)
(0.053008304 9.0677904e-05 0)
(0.052806019 -1.7556644e-06 0)
(0.053149697 1.7059945e-05 0)
(0.052405959 4.8154309e-06 0)
(0.052932893 3.414394e-06 0)
(0.052425581 7.4913856e-08 0)
(0.052832383 1.882705e-06 0)
(0.052463115 -1.5389337e-06 0)
(0.05279633 1.7158546e-06 0)
(0.052490033 -1.6429312e-06 0)
(0.05277408 1.5807449e-06 0)
(0.052509945 -1.4791645e-06 0)
(0.052755806 1.3908711e-06 0)
(0.052526855 -1.2897599e-06 0)
(0.052739754 1.2073151e-06 0)
(0.052541745 -1.1201763e-06 0)
(0.052725665 1.0443915e-06 0)
(0.052554891 -9.6945586e-07 0)
(0.052713296 9.011034e-07 0)
(0.052566464 -8.3556787e-07 0)
(0.052702436 7.7464811e-07 0)
(0.052576633 -7.1707896e-07 0)
(0.052692907 6.632206e-07 0)
(0.052585556 -6.1266444e-07 0)
(0.052684554 5.6538019e-07 0)
(0.052593375 -5.211784e-07 0)
(0.052677237 4.7991417e-07 0)
(0.052600225 -4.4151411e-07 0)
(0.052670825 4.0581511e-07 0)
(0.052606229 -3.7272271e-07 0)
(0.052665202 3.4211335e-07 0)
(0.052611501 -3.1389538e-07 0)
(0.052660255 2.8794417e-07 0)
(0.05261615 -2.6420924e-07 0)
(0.05265588 2.4259318e-07 0)
(0.052620276 -2.2300568e-07 0)
(0.05265198 2.0537485e-07 0)
(0.052623975 -1.896765e-07 0)
(0.052648462 1.7585862e-07 0)
(0.052627333 -1.6372146e-07 0)
(0.052645239 1.534991e-07 0)
(0.052630435 -1.4529052e-07 0)
(0.052642241 1.3696912e-07 0)
(0.05263341 -1.3022175e-07 0)
(0.052639354 1.5875092e-07 0)
(0.052635526 -9.1753044e-08 0)
(0.042812863 0.0073250358 0)
(0.069681305 -0.00049566274 0)
(0.05754776 0.00054876303 0)
(0.059872169 -6.2744065e-05 0)
(0.05827485 0.00010364791 0)
(0.058116267 -3.342112e-06 0)
(0.058524273 2.0014248e-05 0)
(0.057727182 5.7304595e-06 0)
(0.058320671 3.6397037e-06 0)
(0.057756885 3.6599472e-07 0)
(0.05821429 1.9644212e-06 0)
(0.057800148 -1.6156107e-06 0)
(0.05817476 1.8291003e-06 0)
(0.057830572 -1.7690129e-06 0)
(0.058149904 1.7034872e-06 0)
(0.057853055 -1.5959973e-06 0)
(0.058129309 1.5007173e-06 0)
(0.057872173 -1.3905171e-06 0)
(0.05811118 1.301829e-06 0)
(0.057889006 -1.2070034e-06 0)
(0.058095265 1.125227e-06 0)
(0.057903857 -1.0439654e-06 0)
(0.0580813 9.7009396e-07 0)
(0.057916919 -8.9914917e-07 0)
(0.05806905 8.3328001e-07 0)
(0.057928385 -7.7101149e-07 0)
(0.058058313 7.1277347e-07 0)
(0.057938432 -6.5812079e-07 0)
(0.058048913 6.0700281e-07 0)
(0.057947224 -5.5922354e-07 0)
(0.058040692 5.1461506e-07 0)
(0.057954915 -4.7311975e-07 0)
(0.058033499 4.3453627e-07 0)
(0.057961645 -3.9877987e-07 0)
(0.058027201 3.6569794e-07 0)
(0.057967544 -3.3520281e-07 0)
(0.05802167 3.0716274e-07 0)
(0.057972737 -2.815265e-07 0)
(0.058016789 2.5816872e-07 0)
(0.057977335 -2.3700084e-07 0)
(0.058012446 2.1794831e-07 0)
(0.057981449 -2.0099646e-07 0)
(0.058008538 1.8606283e-07 0)
(0.057985176 -1.7293715e-07 0)
(0.058004965 1.6191432e-07 0)
(0.057988611 -1.5305739e-07 0)
(0.058001646 1.4383163e-07 0)
(0.057991898 -1.3690915e-07 0)
(0.057998474 1.6964121e-07 0)
(0.057994333 -9.1662379e-08 0)
(0.047485131 0.0075461235 0)
(0.073385105 -0.00054650136 0)
(0.062843139 0.00059702393 0)
(0.06434562 -6.997185e-05 0)
(0.063380018 0.00011283758 0)
(0.063220317 -5.6762633e-06 0)
(0.06371574 2.2786861e-05 0)
(0.062875903 6.5400427e-06 0)
(0.063533628 3.8004308e-06 0)
(0.062915649 6.8894575e-07 0)
(0.063422993 2.0102064e-06 0)
(0.062964644 -1.6707635e-06 0)
(0.063380027 1.92051e-06 0)
(0.062998542 -1.8788134e-06 0)
(0.063352574 1.8101792e-06 0)
(0.063023585 -1.6982978e-06 0)
(0.063329659 1.5967624e-06 0)
(0.063044906 -1.4782981e-06 0)
(0.063309461 1.3842128e-06 0)
(0.063063671 -1.282421e-06 0)
(0.063291733 1.195424e-06 0)
(0.063080213 -1.108535e-06 0)
(0.063276187 1.0298121e-06 0)
(0.06309475 -9.5407747e-07 0)
(0.063262562 8.8384688e-07 0)
(0.063107495 -8.1743725e-07 0)
(0.063250635 7.5534104e-07 0)
(0.06311865 -6.970731e-07 0)
(0.063240206 6.4258193e-07 0)
(0.063128397 -5.9166525e-07 0)
(0.063231098 5.4411333e-07 0)
(0.06313691 -4.998894e-07 0)
(0.063223143 4.5876444e-07 0)
(0.063144348 -4.2066365e-07 0)
(0.063216188 3.854126e-07 0)
(0.063150857 -3.5292905e-07 0)
(0.063210091 3.2304169e-07 0)
(0.063156575 -2.9572318e-07 0)
(0.063204722 2.708386e-07 0)
(0.063161628 -2.4828879e-07 0)
(0.063199955 2.2798048e-07 0)
(0.063166139 -2.0991838e-07 0)
(0.063195675 1.9401164e-07 0)
(0.063170216 -1.8001558e-07 0)
(0.06319177 1.6830027e-07 0)
(0.063173966 -1.5886669e-07 0)
(0.063188148 1.4880584e-07 0)
(0.063177545 -1.418797e-07 0)
(0.063184709 1.7854575e-07 0)
(0.063180294 -8.9731772e-08 0)
(0.052475824 0.0081615236 0)
(0.076386186 -0.0006759832 0)
(0.067904187 0.000651912 0)
(0.068672509 -7.150341e-05 0)
(0.06834677 0.00011907404 0)
(0.068118457 -8.5255797e-06 0)
(0.068725615 2.5127731e-05 0)
(0.067852581 7.180736e-06 0)
(0.068571689 3.8957238e-06 0)
(0.067901958 1.0320048e-06 0)
(0.068458431 2.0194443e-06 0)
(0.067956723 -1.7048046e-06 0)
(0.068412025 1.9902023e-06 0)
(0.067994047 -1.9724891e-06 0)
(0.06838199 1.9008875e-06 0)
(0.068021631 -1.7861416e-06 0)
(0.068356768 1.6790807e-06 0)
(0.068045135 -1.5531986e-06 0)
(0.068334523 1.4545772e-06 0)
(0.06806581 -1.3465844e-06 0)
(0.068315004 1.255114e-06 0)
(0.068084021 -1.1632817e-06 0)
(0.068297903 1.0803779e-06 0)
(0.068100006 -1.0004815e-06 0)
(0.068282928 9.2648608e-07 0)
(0.068114007 -8.564873e-07 0)
(0.068269835 7.9105595e-07 0)
(0.068126244 -7.2967301e-07 0)
(0.068258401 6.72267e-07 0)
(0.068136923 -6.1863034e-07 0)
(0.06824843 5.6853326e-07 0)
(0.068146236 -5.2195829e-07 0)
(0.068239734 4.7863796e-07 0)
(0.068154359 -4.3851304e-07 0)
(0.068232144 4.0138175e-07 0)
(0.068161455 -3.6716704e-07 0)
(0.068225504 3.3569357e-07 0)
(0.068167677 -3.0693645e-07 0)
(0.068219667 2.8073029e-07 0)
(0.068173165 -2.5697889e-07 0)
(0.068214496 2.3559284e-07 0)
(0.068178052 -2.1658586e-07 0)
(0.068209864 1.998314e-07 0)
(0.06818246 -1.850836e-07 0)
(0.068205647 1.7278083e-07 0)
(0.068186505 -1.6284844e-07 0)
(0.068201742 1.5202387e-07 0)
(0.068190354 -1.4522996e-07 0)
(0.068198055 1.8551438e-07 0)
(0.068193407 -8.6220115e-08 0)
(0.057216846 0.0082227439 0)
(0.079318224 -0.00074942003 0)
(0.072763178 0.00069883286 0)
(0.072852307 -7.459942e-05 0)
(0.073158763 0.00012139638 0)
(0.072823598 -1.1563912e-05 0)
(0.073557766 2.6902276e-05 0)
(0.072658299 7.6392851e-06 0)
(0.073434935 3.9371485e-06 0)
(0.072715917 1.3872847e-06 0)
(0.073320594 1.992932e-06 0)
(0.07277651 -1.7171208e-06 0)
(0.07327067 2.038724e-06 0)
(0.072817182 -2.0500588e-06 0)
(0.073238066 1.9758133e-06 0)
(0.072847273 -1.8596404e-06 0)
(0.073210564 1.7478435e-06 0)
(0.072872928 -1.6153899e-06 0)
(0.073186303 1.5130906e-06 0)
(0.072895481 -1.3996344e-06 0)
(0.073165028 1.3044675e-06 0)
(0.072915326 -1.2084004e-06 0)
(0.073146403 1.1219831e-06 0)
(0.072932729 -1.0385451e-06 0)
(0.073130111 9.6137072e-07 0)
(0.072947953 -8.8833953e-07 0)
(0.073115881 8.2009149e-07 0)
(0.072961243 -7.5606929e-07 0)
(0.073103472 6.9620574e-07 0)
(0.072972825 -6.4028688e-07 0)
(0.073092666 5.8804209e-07 0)
(0.07298291 -5.3947775e-07 0)
(0.073083256 4.9430054e-07 0)
(0.072991693 -4.5246592e-07 0)
(0.073075057 4.1375521e-07 0)
(0.072999352 -3.7809664e-07 0)
(0.073067897 3.4527414e-07 0)
(0.073006054 -3.1528999e-07 0)
(0.073061615 2.8797697e-07 0)
(0.073011953 -2.6322283e-07 0)
(0.073056064 2.4091694e-07 0)
(0.073017194 -2.211065e-07 0)
(0.073051101 2.0365049e-07 0)
(0.073021911 -1.8826601e-07 0)
(0.073046594 1.7547856e-07 0)
(0.07302623 -1.651165e-07 0)
(0.073042427 1.5361898e-07 0)
(0.073030327 -1.4710562e-07 0)
(0.073038512 1.9062641e-07 0)
(0.07303367 -8.1368212e-08 0)
(0.062626236 0.0087303864 0)
(0.081785254 -0.00087020737 0)
(0.077478424 0.00073276267 0)
(0.076888962 -7.7508649e-05 0)
(0.077808147 0.00012054063 0)
(0.07735573 -1.4540605e-05 0)
(0.078215776 2.8034986e-05 0)
(0.077293628 7.8961921e-06 0)
(0.078123451 3.9324009e-06 0)
(0.077357552 1.7437793e-06 0)
(0.078009447 1.9290245e-06 0)
(0.077424098 -1.7073771e-06 0)
(0.077955885 2.066459e-06 0)
(0.077468024 -2.111695e-06 0)
(0.07792073 2.0351695e-06 0)
(0.077500577 -1.9189995e-06 0)
(0.077890984 1.8032685e-06 0)
(0.077528342 -1.6651028e-06 0)
(0.077864749 1.5599949e-06 0)
(0.077552729 -1.4418538e-06 0)
(0.077841761 1.3437298e-06 0)
(0.077574168 -1.2441092e-06 0)
(0.077821653 1.1548417e-06 0)
(0.077592948 -1.068484e-06 0)
(0.077804081 9.8871932e-07 0)
(0.077609359 -9.1319804e-07 0)
(0.077788752 8.4264773e-07 0)
(0.077623668 -7.7647888e-07 0)
(0.077775401 7.1460713e-07 0)
(0.077636121 -6.5681267e-07 0)
(0.07776379 6.028109e-07 0)
(0.077646948 -5.5262835e-07 0)
(0.077753696 5.0593311e-07 0)
(0.077656361 -4.627006e-07 0)
(0.077744916 4.2269114e-07 0)
(0.077664556 -3.8583803e-07 0)
(0.077737262 3.5192343e-07 0)
(0.077671713 -3.2095486e-07 0)
(0.077730562 2.9273244e-07 0)
(0.077677998 -2.6714893e-07 0)
(0.077724653 2.4410427e-07 0)
(0.07768357 -2.2365118e-07 0)
(0.077719384 2.0561065e-07 0)
(0.077688572 -1.897076e-07 0)
(0.077714609 1.7653788e-07 0)
(0.077693143 -1.6582065e-07 0)
(0.077710201 1.5373625e-07 0)
(0.077697465 -1.4760874e-07 0)
(0.077706079 1.9396935e-07 0)
(0.077701083 -7.5436263e-08 0)
(0.067664264 0.0087324153 0)
(0.084317819 -0.00093603027 0)
(0.082099357 0.00076162255 0)
(0.080783625 -7.9246143e-05 0)
(0.082285429 0.0001166 0)
(0.081727492 -1.7598953e-05 0)
(0.082701779 2.854867e-05 0)
(0.081759538 7.9729481e-06 0)
(0.082637259 3.9003931e-06 0)
(0.081827039 2.0963915e-06 0)
(0.082524946 1.8279344e-06 0)
(0.081899575 -1.6741105e-06 0)
(0.082467614 2.0743417e-06 0)
(0.081946635 -2.1573793e-06 0)
(0.082429924 2.0793169e-06 0)
(0.081981596 -1.9644539e-06 0)
(0.082397979 1.8456636e-06 0)
(0.082011419 -1.7026371e-06 0)
(0.082369823 1.5955737e-06 0)
(0.082037591 -1.4734864e-06 0)
(0.082345171 1.3731694e-06 0)
(0.082060576 -1.2706967e-06 0)
(0.082323626 1.1792301e-06 0)
(0.082080689 -1.0905586e-06 0)
(0.082304819 1.0087736e-06 0)
(0.082098245 -9.3130473e-07 0)
(0.082288429 8.5895593e-07 0)
(0.082113534 -7.9110003e-07 0)
(0.082274173 7.2766456e-07 0)
(0.082126822 -6.6842123e-07 0)
(0.082261792 6.1304872e-07 0)
(0.082138357 -5.6159839e-07 0)
(0.082251046 5.137136e-07 0)
(0.082148371 -4.6938666e-07 0)
(0.082241714 4.2837038e-07 0)
(0.082157073 -3.9060287e-07 0)
(0.082233595 3.558247e-07 0)
(0.082164657 -3.2407059e-07 0)
(0.082226502 2.9515031e-07 0)
(0.082171302 -2.6893324e-07 0)
(0.082220261 2.4529416e-07 0)
(0.08217718 -2.2433764e-07 0)
(0.08221471 2.0586059e-07 0)
(0.082182445 -1.8954628e-07 0)
(0.082209691 1.7608779e-07 0)
(0.082187245 -1.6508286e-07 0)
(0.082205065 1.5251848e-07 0)
(0.082191769 -1.46893e-07 0)
(0.082200756 1.9565159e-07 0)
(0.082195643 -6.865385e-08 0)
(0.073478283 0.0091681133 0)
(0.086513827 -0.0010385909 0)
(0.086594391 0.00077852684 0)
(0.084539394 -8.1208555e-05 0)
(0.08659026 0.00010945571 0)
(0.085945725 -2.07009e-05 0)
(0.087016504 2.8509084e-05 0)
(0.086056409 7.8845567e-06 0)
(0.086975934 3.8508715e-06 0)
(0.086124952 2.4349101e-06 0)
(0.086866969 1.6901568e-06 0)
(0.086203016 -1.616699e-06 0)
(0.086805807 2.0631252e-06 0)
(0.086253067 -2.1872585e-06 0)
(0.086765601 2.1086145e-06 0)
(0.086290372 -1.9963233e-06 0)
(0.086731511 1.8753685e-06 0)
(0.086322193 -1.7283363e-06 0)
(0.086701493 1.6201733e-06 0)
(0.086350094 -1.4949161e-06 0)
(0.086675234 1.3931184e-06 0)
(0.086374569 -1.2884562e-06 0)
(0.086652305 1.195431e-06 0)
(0.086395966 -1.1050481e-06 0)
(0.086632309 1.0218107e-06 0)
(0.086414622 -9.4291554e-07 0)
(0.086614903 8.6926356e-07 0)
(0.08643085 -8.0019597e-07 0)
(0.08659978 7.3562837e-07 0)
(0.086444935 -6.7532443e-07 0)
(0.086586666 6.1895734e-07 0)
(0.086457145 -5.6659806e-07 0)
(0.086575301 5.1785065e-07 0)
(0.086467726 -4.7272782e-07 0)
(0.086565449 4.3097155e-07 0)
(0.086476904 -3.9252669e-07 0)
(0.086556894 3.5713344e-07 0)
(0.086484887 -3.2483273e-07 0)
(0.086549435 2.9539876e-07 0)
(0.086491867 -2.6871159e-07 0)
(0.086542889 2.446627e-07 0)
(0.086498026 -2.233524e-07 0)
(0.086537079 2.0454357e-07 0)
(0.086503528 -1.8793558e-07 0)
(0.08653184 1.7428631e-07 0)
(0.086508534 -1.6306373e-07 0)
(0.086527019 1.5011325e-07 0)
(0.086513237 -1.4505977e-07 0)
(0.086522543 1.9578485e-07 0)
(0.086517349 -6.1265129e-08 0)
(0.078218088 0.0090292503 0)
(0.088742653 -0.0011115389 0)
(0.090933313 0.00078825033 0)
(0.088226053 -8.0999314e-05 0)
(0.090734541 9.986366e-05 0)
(0.090010179 -2.3851984e-05 0)
(0.091160218 2.802325e-05 0)
(0.090184312 7.6650578e-06 0)
(0.091138812 3.7994222e-06 0)
(0.090252235 2.7456807e-06 0)
(0.091035295 1.5214398e-06 0)
(0.090334484 -1.5351841e-06 0)
(0.090970433 2.0338714e-06 0)
(0.090387363 -2.2013831e-06 0)
(0.090927726 2.1235255e-06 0)
(0.090426935 -2.0149578e-06 0)
(0.090891554 1.8927944e-06 0)
(0.090460688 -1.7426009e-06 0)
(0.090859741 1.634161e-06 0)
(0.090490254 -1.5064602e-06 0)
(0.090831936 1.4039139e-06 0)
(0.090516163 -1.2977424e-06 0)
(0.090807678 1.2037794e-06 0)
(0.090538791 -1.1122644e-06 0)
(0.090786543 1.0281178e-06 0)
(0.090558499 -9.4831457e-07 0)
(0.090768166 8.7383928e-07 0)
(0.090575622 -8.0399538e-07 0)
(0.090752219 7.3871978e-07 0)
(0.090590465 -6.777642e-07 0)
(0.090738409 6.2077133e-07 0)
(0.090603313 -5.6783715e-07 0)
(0.09072646 5.1854206e-07 0)
(0.090614427 -4.729127e-07 0)
(0.09071612 4.3069457e-07 0)
(0.090624051 -3.9183962e-07 0)
(0.090707158 3.5604793e-07 0)
(0.090632405 -3.2338279e-07 0)
(0.090699363 2.9364207e-07 0)
(0.090639691 -2.6667393e-07 0)
(0.090692536 2.4234087e-07 0)
(0.090646105 -2.2081519e-07 0)
(0.090686494 2.0182167e-07 0)
(0.090651822 -1.8501592e-07 0)
(0.090681057 1.7125843e-07 0)
(0.090657011 -1.5988399e-07 0)
(0.090676063 1.4666475e-07 0)
(0.090661869 -1.4226352e-07 0)
(0.090671441 1.9449294e-07 0)
(0.0906662 -5.3474161e-08 0)
(0.084093515 0.0093768614 0)
(0.090849226 -0.001186822 0)
(0.095033347 0.0007876676 0)
(0.091881027 -7.9893541e-05 0)
(0.094725305 8.8221291e-05 0)
(0.093919516 -2.6932795e-05 0)
(0.095133405 2.719135e-05 0)
(0.094142741 7.3432245e-06 0)
(0.095125696 3.7565737e-06 0)
(0.094209585 3.0140328e-06 0)
(0.09502963 1.3319792e-06 0)
(0.094293987 -1.4316137e-06 0)
(0.094961464 1.987352e-06 0)
(0.094349548 -2.1999919e-06 0)
(0.094916278 2.1244916e-06 0)
(0.094391307 -2.0207807e-06 0)
(0.094878089 1.8983658e-06 0)
(0.094426919 -1.7458558e-06 0)
(0.094844552 1.6379547e-06 0)
(0.094458082 -1.5085726e-06 0)
(0.094815266 1.4059452e-06 0)
(0.094485364 -1.2988966e-06 0)
(0.094789739 1.2046007e-06 0)
(0.094509166 -1.1125264e-06 0)
(0.094767518 1.028008e-06 0)
(0.094529876 -9.4778868e-07 0)
(0.094748218 8.7295852e-07 0)
(0.094547849 -8.0278931e-07 0)
(0.094731489 7.3721301e-07 0)
(0.094563409 -6.7597006e-07 0)
(0.094717022 6.1870774e-07 0)
(0.094576858 -5.6554025e-07 0)
(0.094704525 5.1600922e-07 0)
(0.094588472 -4.7015661e-07 0)
(0.09469373 4.2772596e-07 0)
(0.09459851 -3.8868162e-07 0)
(0.094684392 3.527279e-07 0)
(0.094607205 -3.1993225e-07 0)
(0.094676287 2.9005043e-07 0)
(0.094614772 -2.6295341e-07 0)
(0.094669206 2.3852586e-07 0)
(0.094621416 -2.1691511e-07 0)
(0.094662955 1.9782736e-07 0)
(0.094627323 -1.8094327e-07 0)
(0.094657344 1.6716932e-07 0)
(0.094632673 -1.5570632e-07 0)
(0.094652199 1.4231351e-07 0)
(0.094637665 -1.385995e-07 0)
(0.09464745 1.9189988e-07 0)
(0.094642193 -4.5497234e-08 0)
(0.088543585 0.0091556794 0)
(0.092959422 -0.0012596127 0)
(0.098869579 0.00077626896 0)
(0.095523833 -7.8099426e-05 0)
(0.098562308 7.5518844e-05 0)
(0.097670597 -2.9887897e-05 0)
(0.098935976 2.6088427e-05 0)
(0.097930925 6.9489673e-06 0)
(0.098937055 3.7216055e-06 0)
(0.097997018 3.229886e-06 0)
(0.098849708 1.1352582e-06 0)
(0.098081469 -1.3093193e-06 0)
(0.098778873 1.924309e-06 0)
(0.098139636 -2.1832339e-06 0)
(0.098731238 2.1120268e-06 0)
(0.098183499 -2.0142393e-06 0)
(0.098691107 1.8925587e-06 0)
(0.098220892 -1.7385737e-06 0)
(0.098655921 1.6319735e-06 0)
(0.098253582 -1.5016162e-06 0)
(0.098625224 1.3995907e-06 0)
(0.098282172 -1.2923144e-06 0)
(0.098598488 1.198265e-06 0)
(0.098307092 -1.1061764e-06 0)
(0.098575237 1.021794e-06 0)
(0.098328752 -9.4164572e-07 0)
(0.098555061 8.669101e-07 0)
(0.098347529 -7.9682104e-07 0)
(0.098537595 7.313422e-07 0)
(0.098363765 -6.7019799e-07 0)
(0.09852251 6.1301294e-07 0)
(0.098377777 -5.5992545e-07 0)
(0.0985095 5.1045704e-07 0)
(0.098389856 -4.6465586e-07 0)
(0.098498283 4.2227481e-07 0)
(0.098400277 -3.8329004e-07 0)
(0.098488598 3.4737529e-07 0)
(0.098409285 -3.1461184e-07 0)
(0.098480211 2.8479203e-07 0)
(0.098417106 -2.5774431e-07 0)
(0.098472903 2.3332375e-07 0)
(0.098423955 -2.1176897e-07 0)
(0.098466466 1.9272863e-07 0)
(0.098430029 -1.7584807e-07 0)
(0.098460704 1.6213076e-07 0)
(0.098435518 -1.5064246e-07 0)
(0.09845543 1.3719917e-07 0)
(0.098440621 -1.3421696e-07 0)
(0.098450573 1.8813331e-07 0)
(0.098445328 -3.7503717e-08 0)
(0.094444619 0.0093847916 0)
(0.095132118 -0.0013017343 0)
(0.10246128 0.00075652837 0)
(0.09911266 -7.6858559e-05 0)
(0.10223982 6.2469936e-05 0)
(0.10126268 -3.2523448e-05 0)
(0.10256793 2.4807205e-05 0)
(0.10154833 6.51825e-06 0)
(0.10257363 3.6910459e-06 0)
(0.10161419 3.3898228e-06 0)
(0.1024954 9.4484548e-07 0)