/*--------------------------------*- C++ -*----------------------------------*\
| =========                 |                                                 |
| \\      /  F ield         | OpenFOAM: The Open Source CFD Toolbox           |
|  \\    /   O peration     | Version:  2312                                  |
|   \\  /    A nd           | Website:  www.openfoam.com                      |
|    \\/     M anipulation  |                                                 |
\*---------------------------------------------------------------------------*/
FoamFile
{
    version     2.0;
    format      ascii;
    arch        "LSB;label=32;scalar=64";
    class       volScalarField;
    location    "4";
    object      p;
}
// * * * * * * * * * * * * * * * * * * * * * * * * * * * * * * * * * * * * * //

dimensions      [0 2 -2 0 0 0 0];

internalField   nonuniform List<scalar> 
4000
(
39.813606
37.751122
35.995656
35.036658
33.867027
33.177247
32.21678
31.597272
30.703953
30.088423
29.221729
28.595133
27.744776
27.105483
26.26806
25.617142
24.79077
24.12962
23.312876
22.642731
21.834448
21.156365
20.355555
19.670447
18.876249
18.184927
17.396573
16.699766
15.916559
15.214932
14.436233
13.730398
12.955621
12.246139
11.474745
10.762133
9.9936244
9.2783617
8.5122787
7.7948068
7.0307239
6.3114536
5.5489737
4.8282898
4.0670393
3.3453054
2.5849299
1.8624948
1.1026542
0.3798543
39.773253
37.750233
35.997157
35.036549
33.867114
33.177231
32.216796
31.597274
30.70396
30.088419
29.221734
28.595129
27.74478
27.10548
26.268064
25.617139
24.790774
24.129617
23.312879
22.642729
21.83445
21.156362
20.355557
19.670445
18.876251
18.184925
17.396575
16.699764
15.91656
15.21493
14.436235
13.730396
12.955622
12.246137
11.474746
10.762132
9.9936254
9.2783607
8.5122796
7.7948059
7.0307247
6.3114528
5.5489745
4.828289
4.0670401
3.3453047
2.5849306
1.8624942
1.1026549
0.37985298
39.750887
37.751191
35.999377
35.036261
33.86726
33.177217
32.216817
31.597288
30.703961
30.088423
29.221733
28.59513
27.744779
27.105481
26.268063
25.61714
24.790773
24.129618
23.312878
22.642729
21.83445
21.156363
20.355556
19.670446
18.876251
18.184926
17.396575
16.699765
15.91656
15.214931
14.436234
13.730397
12.955622
12.246138
11.474746
10.762132
9.9936251
9.278361
8.5122794
7.7948061
7.0307245
6.311453
5.5489743
4.8282892
4.0670399
3.3453049
2.5849304
1.8624944
1.1026548
0.37985254
39.710715
37.747175
36.001469
35.035891
33.867409
33.177194
32.216837
31.597304
30.70396
30.088429
29.22173
28.595133
27.744776
27.105483
26.268061
25.617142
24.790771
24.12962
23.312876
22.642731
21.834448
21.156364
20.355555
19.670447
18.876249
18.184927
17.396573
16.699766
15.916559
15.214932
14.436233
13.730397
12.955621
12.246138
11.474745
10.762133
9.9936245
9.2783616
8.5122788
7.7948067
7.0307239
6.3114536
5.5489737
4.8282897
4.0670394
3.3453054
2.5849299
1.8624949
1.1026544
0.37985247
39.658303
37.743341
36.003312
35.035421
33.867572
33.177159
32.216855
31.597316
30.703957
30.088434
29.221727
28.595136
27.744774
27.105485
26.268059
25.617144
24.790769
24.129621
23.312875
22.642733
21.834447
21.156366
20.355554
19.670448
18.876248
18.184928
17.396572
16.699767
15.916558
15.214933
14.436233
13.730398
12.955621
12.246139
11.474744
10.762134
9.9936239
9.2783621
8.5122783
7.7948072
7.0307235
6.311454
5.5489733
4.8282902
4.0670389
3.3453058
2.5849295
1.8624953
1.102654
0.37985243
39.630659
37.739678
36.004585
35.035107
33.867793
33.177115
32.216873
31.597323
30.703955
30.088437
29.221725
28.595138
27.744772
27.105487
26.268057
25.617145
24.790768
24.129623
23.312874
22.642734
21.834446
21.156367
20.355553
19.670449
18.876248
18.184929
17.396572
16.699767
15.916557
15.214933
14.436232
13.730399
12.95562
12.24614
11.474744
10.762134
9.9936235
9.2783626
8.5122779
7.7948076
7.0307231
6.3114544
5.5489729
4.8282905
4.0670386
3.3453061
2.5849292
1.8624957
1.1026537
0.37985239
39.588217
37.737809
36.004599
35.035518
33.868124
33.177071
32.216892
31.597327
30.703952
30.088439
29.221723
28.595139
27.744771
27.105488
26.268056
25.617146
24.790767
24.129624
23.312873
22.642735
21.834445
21.156367
20.355552
19.67045
18.876247
18.184929
17.396571
16.699768
15.916557
15.214934
14.436232
13.730399
12.95562
12.24614
11.474743
10.762134
9.9936231
9.2783629
8.5122775
7.7948079
7.0307228
6.3114547
5.5489727
4.8282908
4.0670383
3.3453064
2.5849289
1.862496
1.1026534
0.37985235
39.563266
37.738354
36.00271
35.03687
33.868448
33.177024
32.21691
31.597326
30.703949
30.08844
29.221721
28.59514
27.744769
27.105489
26.268055
25.617147
24.790766
24.129624
23.312872
22.642735
21.834444
21.156368
20.355551
19.67045
18.876246
18.18493
17.396571
16.699769
15.916556
15.214934
14.436231
13.7304
12.955619
12.24614
11.474743
10.762135
9.9936228
9.2783632
8.5122773
7.7948082
7.0307225
6.3114549
5.5489724
4.828291
4.0670381
3.3453066
2.5849287
1.8624963
1.1026531
0.37985232
39.54116
37.736633
36.001438
35.038529
33.868529
33.176984
32.216929
31.597322
30.703946
30.088441
29.221719
28.595141
27.744768
27.10549
26.268054
25.617148
24.790765
24.129625
23.312871
22.642736
21.834444
21.156369
20.355551
19.670451
18.876246
18.18493
17.39657
16.699769
15.916556
15.214935
14.436231
13.7304
12.955619
12.246141
11.474743
10.762135
9.9936226
9.2783634
8.512277
7.7948084
7.0307223
6.3114552
5.5489722
4.8282913
4.0670379
3.3453069
2.5849285
1.8624965
1.1026529
0.3798523
39.504997
37.731135
36.002183
35.039702
33.868279
33.176975
32.216945
31.597313
30.703941
30.08844
29.221717
28.595142
27.744767
27.105491
26.268053
25.617149
24.790764
24.129626
23.31287
22.642737
21.834443
21.156369
20.35555
19.670451
18.876245
18.184931
17.39657
16.699769
15.916556
15.214935
14.436231
13.7304
12.955619
12.246141
11.474742
10.762135
9.9936223
9.2783637
8.5122768
7.7948086
7.0307221
6.3114554
5.548972
4.8282914
4.0670377
3.345307
2.5849283
1.8624967
1.1026526
0.37985229
39.47408
37.725878
36.002556
35.039873
33.867762
33.176975
32.216943
31.597295
30.703934
30.088438
29.221714
28.595142
27.744766
27.105491
26.268052
25.617149
24.790764
24.129626
23.31287
22.642737
21.834443
21.15637
20.35555
19.670452
18.876245
18.184931
17.396569
16.69977
15.916555
15.214935
14.43623
13.7304
12.955618
12.246141
11.474742
10.762136
9.9936221
9.2783639
8.5122766
7.7948088
7.0307219
6.3114555
5.5489718
4.8282916
4.0670375
3.3453072
2.5849282
1.8624969
1.1026524
0.37985229
39.446992
37.721332
36.001155
35.03931
33.867162
33.17693
32.21691
31.597267
30.703924
30.088434
29.221711
28.595142
27.744765
27.105492
26.268052
25.61715
24.790763
24.129627
23.312869
22.642738
21.834442
21.15637
20.355549
19.670452
18.876245
18.184932
17.396569
16.69977
15.916555
15.214935
14.43623
13.730401
12.955618
12.246141
11.474742
10.762136
9.9936219
9.2783641
8.5122764
7.794809
7.0307218
6.3114557
5.5489717
4.8282918
4.0670374
3.3453073
2.584928
1.8624971
1.1026522
0.37985229
39.426848
37.715994
35.9991
35.038483
33.866589
33.176801
32.216841
31.597228
30.703911
30.088428
29.221707
28.595141
27.744763
27.105492
26.268051
25.61715
24.790762
24.129627
23.312869
22.642738
21.834442
21.156371
20.355549
19.670452
18.876244
18.184932
17.396569
16.69977
15.916555
15.214936
14.43623
13.730401
12.955618
12.246142
11.474742
10.762136
9.9936217
9.2783642
8.5122763
7.7948092
7.0307216
6.3114558
5.5489715
4.8282919
4.0670373
3.3453075
2.5849279
1.8624972
1.102652
0.3798523
39.401884
37.709013
35.996458
35.037512
33.866033
33.176605
32.21675
31.597182
30.703896
30.08842
29.221703
28.59514
27.744762
27.105492
26.26805
25.617151
24.790762
24.129628
23.312869
22.642738
21.834441
21.156371
20.355549
19.670453
18.876244
18.184932
17.396569
16.699771
15.916555
15.214936
14.43623
13.730401
12.955618
12.246142
11.474742
10.762136
9.9936216
9.2783644
8.5122761
7.7948093
7.0307215
6.311456
5.5489714
4.828292
4.0670371
3.3453076
2.5849278
1.8624974
1.1026518
0.3798523
39.383956
37.703085
35.99384
35.036489
33.865463
33.176368
32.216647
31.59713
30.703882
30.088412
29.221698
28.595139
27.744761
27.105493
26.26805
25.617151
24.790761
24.129628
23.312868
22.642739
21.834441
21.156371
20.355548
19.670453
18.876244
18.184932
17.396568
16.699771
15.916554
15.214936
14.436229
13.730401
12.955618
12.246142
11.474741
10.762136
9.9936214
9.2783645
8.512276
7.7948094
7.0307213
6.3114561
5.5489713
4.8282921
4.067037
3.3453077
2.5849277
1.8624975
1.1026516
0.37985232
39.373742
37.696855
35.991168
35.035273
33.864836
33.176106
32.216541
31.597077
30.703869
30.088404
29.221693
28.595137
27.744759
27.105493
26.268049
25.617151
24.790761
24.129629
23.312868
22.642739
21.834441
21.156372
20.355548
19.670453
18.876243
18.184933
17.396568
16.699771
15.916554
15.214936
14.436229
13.730401
12.955617
12.246142
11.474741
10.762136
9.9936213
9.2783646
8.5122759
7.7948095
7.0307212
6.3114562
5.5489712
4.8282922
4.0670369
3.3453078
2.5849276
1.8624976
1.1026514
0.37985233
39.357937
37.68976
35.988691
35.033787
33.864163
33.175841
32.216436
31.597024
30.703858
30.088397
29.221688
28.595136
27.744758
27.105493
26.268048
25.617152
24.790761
24.129629
23.312867
22.642739
21.83444
21.156372
20.355548
19.670453
18.876243
18.184933
17.396568
16.699771
15.916554
15.214936
14.436229
13.730402
12.955617
12.246142
11.474741
10.762137
9.9936212
9.2783648
8.5122758
7.7948096
7.0307211
6.3114563
5.5489711
4.8282923
4.0670368
3.3453079
2.5849275
1.8624977
1.1026513
0.37985234
39.346073
37.683059
35.986516
35.032194
33.863505
33.175595
32.216338
31.596975
30.703847
30.088391
29.221685
28.595135
27.744757
27.105493
26.268048
25.617152
24.79076
24.129629
23.312867
22.64274
21.83444
21.156372
20.355548
19.670454
18.876243
18.184933
17.396568
16.699771
15.916554
15.214937
14.436229
13.730402
12.955617
12.246142
11.474741
10.762137
9.9936211
9.2783649
8.5122756
7.7948097
7.030721
6.3114564
5.548971
4.8282924
4.0670367
3.345308
2.5849274
1.8624978
1.1026511
0.37985236
39.330916
37.677034
35.984748
35.030763
33.862939
33.175386
32.216251
31.596933
30.703836
30.088386
29.221684
28.595135
27.744756
27.105493
26.268047
25.617152
24.79076
24.129629
23.312867
22.64274
21.83444
21.156372
20.355547
19.670454
18.876243
18.184933
17.396567
16.699771
15.916554
15.214937
14.436229
13.730402
12.955617
12.246143
11.474741
10.762137
9.993621
9.278365
8.5122756
7.7948098
7.0307209
6.3114565
5.5489709
4.8282925
4.0670367
3.3453081
2.5849274
1.8624979
1.102651
0.37985237
39.322919
37.672533
35.982963
35.029543
33.862466
33.175217
32.216177
31.596897
30.703827
30.088379
29.221683
28.595134
27.744755
27.105493
26.268047
25.617152
24.79076
24.12963
23.312867
22.64274
21.83444
21.156372
20.355547
19.670454
18.876243
18.184933
17.396567
16.699772
15.916554
15.214937
14.436229
13.730402
12.955617
12.246143
11.474741
10.762137
9.9936209
9.2783651
8.5122755
7.7948099
7.0307209
6.3114566
5.5489708
4.8282926
4.0670366
3.3453082
2.5849273
1.8624979
1.1026508
0.37985239
39.315409
37.666809
35.980938
35.028441
33.86206
33.175081
32.216116
31.596869
30.70382
30.088373
29.221684
28.595134
27.744754
27.105493
26.268046
25.617153
24.790759
24.12963
23.312866
22.64274
21.834439
21.156373
20.355547
19.670454
18.876243
18.184934
17.396567
16.699772
15.916553
15.214937
14.436228
13.730402
12.955617
12.246143
11.474741
10.762137
9.9936208
9.2783651
8.5122754
7.79481
7.0307208
6.3114566
5.5489708
4.8282927
4.0670365
3.3453082
2.5849272
1.862498
1.1026507
0.3798524
39.305981
37.662452
35.978901
35.027454
33.861699
33.174967
32.216063
31.596845
30.703815
30.088366
29.221685
28.595133
27.744754
27.105493
26.268046
25.617153
24.790759
24.12963
23.312866
22.64274
21.834439
21.156373
20.355547
19.670454
18.876242
18.184934
17.396567
16.699772
15.916553
15.214937
14.436228
13.730402
12.955617
12.246143
11.474741
10.762137
9.9936207
9.2783652
8.5122753
7.7948101
7.0307207
6.3114567
5.5489707
4.8282927
4.0670364
3.3453083
2.5849272
1.862498
1.1026506
0.37985242
39.299803
37.657748
35.976863
35.026549
33.861369
33.174867
32.216016
31.596824
30.70381
30.088359
29.221686
28.595133
27.744753
27.105493
26.268046
25.617153
24.790759
24.12963
23.312866
22.642741
21.834439
21.156373
20.355547
19.670454
18.876242
18.184934
17.396567
16.699772
15.916553
15.214937
14.436228
13.730402
12.955617
12.246143
11.474741
10.762137
9.9936206
9.2783653
8.5122752
7.7948101
7.0307206
6.3114568
5.5489706
4.8282928
4.0670364
3.3453084
2.5849271
1.8624981
1.1026504
0.37985243
39.290766
37.653739
35.97497
35.025727
33.861066
33.174777
32.215974
31.596806
30.703806
30.088352
29.221688
28.595133
27.744753
27.105493
26.268045
25.617153
24.790758
24.12963
23.312866
22.642741
21.834439
21.156373
20.355546
19.670455
18.876242
18.184934
17.396567
16.699772
15.916553
15.214937
14.436228
13.730402
12.955617
12.246143
11.47474
10.762137
9.9936205
9.2783654
8.5122752
7.7948102
7.0307206
6.3114568
5.5489706
4.8282928
4.0670363
3.3453084
2.5849271
1.8624981
1.1026503
0.37985245
39.285442
37.650152
35.973256
35.024998
33.860793
33.174697
32.215936
31.59679
30.703802
30.088345
29.221688
28.595134
27.744753
27.105493
26.268045
25.617153
24.790758
24.129631
23.312865
22.642741
21.834439
21.156373
20.355546
19.670455
18.876242
18.184934
17.396567
16.699772
15.916553
15.214937
14.436228
13.730403
12.955616
12.246143
11.47474
10.762137
9.9936205
9.2783654
8.5122751
7.7948103
7.0307205
6.3114569
5.5489705
4.8282929
4.0670363
3.3453085
2.584927
1.8624982
1.1026502
0.37985246
39.279385
37.647188
35.971759
35.024359
33.860552
33.174629
32.215902
31.596776
30.703799
30.088339
29.221689
28.595134
27.744753
27.105493
26.268045
25.617153
24.790758
24.129631
23.312865
22.642741
21.834439
21.156373
20.355546
19.670455
18.876242
18.184934
17.396567
16.699772
15.916553
15.214938
14.436228
13.730403
12.955616
12.246143
11.47474
10.762137
9.9936204
9.2783655
8.5122751
7.7948103
7.0307205
6.3114569
5.5489705
4.8282929
4.0670362
3.3453085
2.584927
1.8624982
1.1026501
0.37985247
39.275398
37.644466
35.970405
35.023801
33.860342
33.174572
32.215872
31.596764
30.703796
30.088333
29.221689
28.595133
27.744754
27.105494
26.268045
25.617153
24.790758
24.129631
23.312865
22.642741
21.834438
21.156373
20.355546
19.670455
18.876242
18.184934
17.396567
16.699772
15.916553
15.214938
14.436228
13.730403
12.955616
12.246143
11.47474
10.762137
9.9936204
9.2783655
8.512275
7.7948104
7.0307204
6.311457
5.5489704
4.828293
4.0670362
3.3453086
2.584927
1.8624982
1.10265
0.37985249
39.270733
37.642142
35.969248
35.023325
33.860163
33.174527
32.215848
31.596755
30.703794
30.088329
29.221689
28.595132
27.744755
27.105494
26.268045
25.617153
24.790758
24.129631
23.312865
22.642741
21.834438
21.156374
20.355546
19.670455
18.876242
18.184934
17.396566
16.699772
15.916553
15.214938
14.436228
13.730403
12.955616
12.246143
11.47474
10.762137
9.9936203
9.2783656
8.512275
7.7948104
7.0307204
6.311457
5.5489704
4.828293
4.0670362
3.3453086
2.5849269
1.8624983
1.1026499
0.3798525
39.2675
37.640141
35.96824
35.022933
33.86002
33.174495
32.215829
31.596748
30.703792
30.088325
29.22169
28.595131
27.744756
27.105494
26.268045
25.617154
24.790757
24.129631
23.312865
22.642741
21.834438
21.156374
20.355546
19.670455
18.876242
18.184934
17.396566
16.699773
15.916553
15.214938
14.436228
13.730403
12.955616
12.246143
11.47474
10.762137
9.9936203
9.2783656
8.5122749
7.7948105
7.0307203
6.3114571
5.5489703
4.8282931
4.0670361
3.3453086
2.5849269
1.8624983
1.1026498
0.37985251
39.264077
37.638394
35.967417
35.022616
33.859904
33.174473
32.215814
31.596743
30.703791
30.088322
29.22169
28.595129
27.744757
27.105495
26.268045
25.617154
24.790757
24.129631
23.312865
22.642741
21.834438
21.156374
20.355546
19.670455
18.876241
18.184935
17.396566
16.699773
15.916553
15.214938
14.436228
13.730403
12.955616
12.246143
11.47474
10.762138
9.9936202
9.2783657
8.5122749
7.7948105
7.0307203
6.3114571
5.5489703
4.8282931
4.0670361
3.3453087
2.5849269
1.8624983
1.1026498
0.37985252
39.261509
37.637013
35.966726
35.022366
33.859818
33.174462
32.215804
31.596741
30.703791
30.08832
29.221691
28.595127
27.744758
27.105495
26.268045
25.617154
24.790757
24.129631
23.312865
22.642741
21.834438
21.156374
20.355546
19.670455
18.876241
18.184935
17.396566
16.699773
15.916553
15.214938
14.436228
13.730403
12.955616
12.246143
11.47474
10.762138
9.9936202
9.2783657
8.5122748
7.7948105
7.0307203
6.3114571
5.5489703
4.8282931
4.0670361
3.3453087
2.5849268
1.8624983
1.1026497
0.37985253
39.259058
37.635735
35.966188
35.022178
33.859756
33.174459
32.215798
31.59674
30.703791
30.088318
29.221692
28.595126
27.744759
27.105496
26.268045
25.617154
24.790757
24.129631
23.312864
22.642741
21.834438
21.156374
20.355546
19.670455
18.876241
18.184935
17.396566
16.699773
15.916552
15.214938
14.436228
13.730403
12.955616
12.246143
11.47474
10.762138
9.9936202
9.2783657
8.5122748
7.7948106
7.0307202
6.3114572
5.5489703
4.8282931
4.067036
3.3453087
2.5849268
1.8624983
1.1026496
0.37985254
39.256815
37.634817
35.965758
35.02204
33.859715
33.174463
32.215796
31.596741
30.703791
30.088316
29.221693
28.595125
27.744759
27.105496
26.268045
25.617154
24.790757
24.129631
23.312864
22.642742
21.834438
21.156374
20.355546
19.670455
18.876241
18.184935
17.396566
16.699773
15.916552
15.214938
14.436228
13.730403
12.955616
12.246143
11.47474
10.762138
9.9936201
9.2783658
8.5122748
7.7948106
7.0307202
6.3114572
5.5489702
4.8282932
4.067036
3.3453087
2.5849268
1.8624983
1.1026496
0.37985254
39.25519
37.633957
35.965451
35.021952
33.859694
33.174473
32.215797
31.596743
30.703793
30.088316
29.221693
28.595124
27.74476
27.105496
26.268045
25.617154
24.790757
24.129631
23.312864
22.642742
21.834438
21.156374
20.355545
19.670455
18.876241
18.184935
17.396566
16.699773
15.916552
15.214938
14.436228
13.730403
12.955616
12.246144
11.47474
10.762138
9.9936201
9.2783658
8.5122748
7.7948106
7.0307202
6.3114572
5.5489702
4.8282932
4.067036
3.3453088
2.5849268
1.8624984
1.1026495
0.37985254
39.253288
37.63338
35.965245
35.02191
33.859693
33.17449
32.215802
31.596746
30.703794
30.088316
29.221694
28.595123
27.74476
27.105497
26.268046
25.617154
24.790757
24.129631
23.312864
22.642742
21.834438
21.156374
20.355545
19.670455
18.876241
18.184935
17.396566
16.699773
15.916552
15.214938
14.436228
13.730403
12.955616
12.246144
11.47474
10.762138
9.9936201
9.2783658
8.5122747
7.7948106
7.0307202
6.3114572
5.5489702
4.8282932
4.067036
3.3453088
2.5849268
1.8624984
1.1026495
0.37985254
39.25225
37.632908
35.965143
35.021908
33.859706
33.174511
32.215809
31.596751
30.703796
30.088316
29.221695
28.595123
27.74476
27.105497
26.268046
25.617155
24.790757
24.129631
23.312864
22.642742
21.834438
21.156374
20.355545
19.670455
18.876241
18.184935
17.396566
16.699773
15.916552
15.214938
14.436227
13.730403
12.955616
12.246144
11.47474
10.762138
9.9936201
9.2783658
8.5122747
7.7948106
7.0307202
6.3114572
5.5489702
4.8282932
4.067036
3.3453088
2.5849268
1.8624984
1.1026495
0.37985254
39.250846
37.632625
35.965118
35.021937
33.859733
33.174535
32.215818
31.596756
30.703799
30.088317
29.221695
28.595123
27.744759
27.105497
26.268046
25.617155
24.790757
24.129631
23.312864
22.642742
21.834438
21.156374
20.355545
19.670456
18.876241
18.184935
17.396566
16.699773
15.916552
15.214938
14.436227
13.730403
12.955616
12.246144
11.47474
10.762138
9.99362
9.2783659
8.5122747
7.7948107
7.0307202
6.3114572
5.5489702
4.8282932
4.067036
3.3453088
2.5849267
1.8624984
1.1026495
0.37985253
39.250321
37.632452
35.965156
35.021987
33.859764
33.174559
32.215828
31.596762
30.703801
30.088318
29.221696
28.595123
27.744759
27.105497
26.268046
25.617155
24.790757
24.129631
23.312864
22.642742
21.834437
21.156374
20.355545
19.670456
18.876241
18.184935
17.396566
16.699773
15.916552
15.214938
14.436227
13.730403
12.955616
12.246144
11.47474
10.762138
9.99362
9.2783659
8.5122747
7.7948107
7.0307202
6.3114572
5.5489702
4.8282932
4.067036
3.3453088
2.5849267
1.8624984
1.1026495
0.37985252
39.249447
37.632415
35.965227
35.022039
33.859796
33.174579
32.215836
31.596766
30.703803
30.088319
29.221697
28.595123
27.744759
27.105497
26.268046
25.617155
24.790757
24.129631
23.312864
22.642742
21.834437
21.156374
20.355545
19.670456
18.876241
18.184935
17.396566
16.699773
15.916552
15.214938
14.436227
13.730403
12.955616
12.246144
11.47474
10.762138
9.99362
9.2783659
8.5122747
7.7948107
7.0307202
6.3114572
5.5489702
4.8282932
4.067036
3.3453088
2.5849268
1.8624984
1.1026495
0.37985251
39.249356
37.632498
35.965299
35.022077
33.859814
33.17459
32.21584
31.596768
30.703804
30.088319
29.221697
28.595123
27.74476
27.105497
26.268046
25.617155
24.790757
24.129631
23.312864
22.642742
21.834437
21.156374
20.355545
19.670456
18.876241
18.184935
17.396566
16.699773
15.916552
15.214938
14.436227
13.730403
12.955616
12.246144
11.47474
10.762138
9.99362
9.2783659
8.5122747
7.7948107
7.0307202
6.3114572
5.5489702
4.8282932
4.067036
3.3453088
2.5849268
1.8624984
1.1026496
0.37985249
39.24892
37.632604
35.965331
35.022078
33.859815
33.174589
32.21584
31.596768
30.703804
30.088319
29.221697
28.595123
27.74476
27.105497
26.268046
25.617156
24.790757
24.129631
23.312864
22.642742
21.834437
21.156374
20.355545
19.670456
18.876241
18.184935
17.396566
16.699773
15.916552
15.214938
14.436227
13.730403
12.955616
12.246144
11.47474
10.762138
9.99362
9.2783659
8.5122747
7.7948107
7.0307202
6.3114572
5.5489702
4.8282932
4.067036
3.3453088
2.5849268
1.8624984
1.1026496
0.37985249
39.249304
37.632766
35.965315
35.022047
33.859796
33.174575
32.215834
31.596765
30.703803
30.088318
29.221696
28.595123
27.744759
27.105497
26.268046
25.617156
24.790757
24.129631
23.312864
22.642742
21.834437
21.156374
20.355545
19.670456
18.876241
18.184935
17.396566
16.699773
15.916552
15.214938
14.436227
13.730403
12.955616
12.246144
11.47474
10.762138
9.99362
9.2783659
8.5122747
7.7948107
7.0307202
6.3114572
5.5489702
4.8282932
4.067036
3.3453088
2.5849268
1.8624984
1.1026495
0.37985251
39.249265
37.633044
35.965305
35.021999
33.859768
33.174554
32.215825
31.59676
30.703801
30.088318
29.221696
28.595123
27.744759
27.105498
26.268046
25.617155
24.790757
24.129631
23.312864
22.642742
21.834437
21.156374
20.355545
19.670456
18.876241
18.184935
17.396566
16.699773
15.916552
15.214938
14.436227
13.730403
12.955616
12.246144
11.47474
10.762138
9.99362
9.2783659
8.5122747
7.7948107
7.0307202
6.3114572
5.5489702
4.8282932
4.067036
3.3453088
2.5849267
1.8624984
1.1026495
0.37985252
39.250121
37.633478
35.965327
35.021963
33.859739
33.17453
32.215814
31.596755
30.703798
30.088317
29.221695
28.595123
27.744759
27.105497
26.268046
25.617155
24.790757
24.129631
23.312864
22.642742
21.834438
21.156374
20.355545
19.670456
18.876241
18.184935
17.396566
16.699773
15.916552
15.214938
14.436227
13.730403
12.955616
12.246144
11.47474
10.762138
9.99362
9.2783659
8.5122747
7.7948107
7.0307202
6.3114572
5.5489702
4.8282932
4.067036
3.3453088
2.5849267
1.8624984
1.1026495
0.37985253
39.250533
37.634025
35.965426
35.021944
33.859719
33.174506
32.215805
31.596749
30.703796
30.088316
29.221695
28.595123
27.744759
27.105497
26.268046
25.617155
24.790757
24.129631
23.312864
22.642742
21.834438
21.156374
20.355545
19.670455
18.876241
18.184935
17.396566
16.699773
15.916552
15.214938
14.436227
13.730403
12.955616
12.246144
11.47474
10.762138
9.9936201
9.2783658
8.5122747
7.7948106
7.0307202
6.3114572
5.5489702
4.8282932
4.067036
3.3453088
2.5849268
1.8624984
1.1026495
0.37985254
39.25199
37.634732
35.965592
35.021963
33.859709
33.174485
32.215798
31.596745
30.703794
30.088315
29.221694
28.595123
27.74476
27.105497
26.268046
25.617155
24.790757
24.129631
23.312864
22.642742
21.834438
21.156374
20.355545
19.670455
18.876241
18.184935
17.396566
16.699773
15.916552
15.214938
14.436228
13.730403
12.955616
12.246144
11.47474
10.762138
9.9936201
9.2783658
8.5122747
7.7948106
7.0307202
6.3114572
5.5489702
4.8282932
4.067036
3.3453088
2.5849268
1.8624984
1.1026495
0.37985254
39.252853
37.635639
35.965883
35.022018
33.859718
33.174468
32.215793
31.596741
30.703792
30.088315
29.221693
28.595124
27.74476
27.105496
26.268045
25.617154
24.790757
24.129631
23.312864
22.642742
21.834438
21.156374
20.355545
19.670455
18.876241
18.184935
17.396566
16.699773
15.916552
15.214938
14.436228
13.730403
12.955616
12.246144
11.47474
10.762138
9.9936201
9.2783658
8.5122748
7.7948106
7.0307202
6.3114572
5.5489702
4.8282932
4.067036
3.3453088
2.5849268
1.8624984
1.1026495
0.37985254
39.254762
37.636647
35.966251
35.022124
33.859744
33.174458
32.215792
31.596739
30.703791
30.088316
29.221693
28.595124
27.744759
27.105496
26.268045
25.617154
24.790757
24.129631
23.312864
22.642742
21.834438
21.156374
20.355546
19.670455
18.876241
18.184935
17.396566
16.699773
15.916552
15.214938
14.436228
13.730403
12.955616
12.246143
11.47474
10.762138
9.9936201
9.2783658
8.5122748
7.7948106
7.0307202
6.3114572
5.5489702
4.8282932
4.067036
3.3453087
2.5849268
1.8624983
1.1026496
0.37985254
39.256241
37.638016
35.96677
35.022273
33.859791
33.174454
32.215794
31.596738
30.703791
30.088317
29.221692
28.595126
27.744759
27.105496
26.268045
25.617154
24.790757
24.129631
23.312864
22.642741
21.834438
21.156374
20.355546
19.670455
18.876241
18.184935
17.396566
16.699773
15.916552
15.214938
14.436228
13.730403
12.955616
12.246143
11.47474
10.762138
9.9936202
9.2783657
8.5122748
7.7948106
7.0307202
6.3114572
5.5489703
4.8282931
4.067036
3.3453087
2.5849268
1.8624983
1.1026496
0.37985254
39.258438
37.639312
35.967372
35.022482
33.859859
33.174458
32.2158
31.596739
30.703791
30.088319
29.221691
28.595127
27.744758
27.105495
26.268045
25.617154
24.790757
24.129631
23.312865
22.642741
21.834438
21.156374
20.355546
19.670455
18.876241
18.184935
17.396566
16.699773
15.916553
15.214938
14.436228
13.730403
12.955616
12.246143
11.47474
10.762138
9.9936202
9.2783657
8.5122748
7.7948105
7.0307203
6.3114571
5.5489703
4.8282931
4.0670361
3.3453087
2.5849268
1.8624983
1.1026497
0.37985253
39.260831
37.641163
35.968134
35.022744
33.859954
33.174471
32.21581
31.596742
30.703791
30.088322
29.22169
28.595129
27.744757
27.105495
26.268045
25.617154
24.790757
24.129631
23.312865
22.642741
21.834438
21.156374
20.355546
19.670455
18.876241
18.184935
17.396566
16.699773
15.916553
15.214938
14.436228
13.730403
12.955616
12.246143
11.47474
10.762138
9.9936202
9.2783657
8.5122749
7.7948105
7.0307203
6.3114571
5.5489703
4.8282931
4.0670361
3.3453087
2.5849269
1.8624983
1.1026498
0.37985252
39.263467
37.642903
35.969026
35.023081
33.860074
33.174493
32.215824
31.596747
30.703793
30.088325
29.22169
28.595131
27.744756
27.105494
26.268045
25.617154
24.790757
24.129631
23.312865
22.642741
21.834438
21.156374
20.355546
19.670455
18.876242
18.184934
17.396566
16.699773
15.916553
15.214938
14.436228
13.730403
12.955616
12.246143
11.47474
10.762137
9.9936203
9.2783656
8.5122749
7.7948105
7.0307203
6.3114571
5.5489703
4.8282931
4.0670361
3.3453086
2.5849269
1.8624983
1.1026498
0.37985251
39.266948
37.645317
35.970068
35.023483
33.860226
33.174526
32.215844
31.596754
30.703795
30.088329
29.22169
28.595132
27.744755
27.105494
26.268045
25.617153
24.790758
24.129631
23.312865
22.642741
21.834438
21.156374
20.355546
19.670455
18.876242
18.184934
17.396566
16.699772
15.916553
15.214938
14.436228
13.730403
12.955616
12.246143
11.47474
10.762137
9.9936203
9.2783656
8.512275
7.7948104
7.0307204
6.311457
5.5489704
4.828293
4.0670362
3.3453086
2.5849269
1.8624983
1.1026499
0.3798525
39.270289
37.647633
35.97129
35.023971
33.860408
33.174571
32.215868
31.596763
30.703797
30.088333
29.221689
28.595133
27.744754
27.105494
26.268045
25.617153
24.790758
24.129631
23.312865
22.642741
21.834438
21.156373
20.355546
19.670455
18.876242
18.184934
17.396567
16.699772
15.916553
15.214938
14.436228
13.730403
12.955616
12.246143
11.47474
10.762137
9.9936204
9.2783655
8.512275
7.7948104
7.0307204
6.311457
5.5489704
4.828293
4.0670362
3.3453086
2.584927
1.8624982
1.10265
0.37985249
39.275331
37.65075
35.972639
35.024532
33.860623
33.174628
32.215898
31.596775
30.7038
30.088339
29.221689
28.595134
27.744753
27.105494
26.268045
25.617153
24.790758
24.129631
23.312865
22.642741
21.834439
21.156373
20.355546
19.670455
18.876242
18.184934
17.396567
16.699772
15.916553
15.214938
14.436228
13.730403
12.955616
12.246143
11.47474
10.762137
9.9936204
9.2783655
8.5122751
7.7948103
7.0307205
6.3114569
5.5489705
4.8282929
4.0670362
3.3453085
2.584927
1.8624982
1.1026501
0.37985247
39.279498
37.653737
35.974208
35.025188
33.860872
33.174698
32.215932
31.596789
30.703803
30.088345
29.221689
28.595134
27.744753
27.105493
26.268045
25.617153
24.790758
24.129631
23.312865
22.642741
21.834439
21.156373
20.355546
19.670455
18.876242
18.184934
17.396567
16.699772
15.916553
15.214937
14.436228
13.730403
12.955616
12.246143
11.47474
10.762137
9.9936205
9.2783654
8.5122751
7.7948103
7.0307205
6.3114569
5.5489705
4.8282929
4.0670363
3.3453085
2.584927
1.8624982
1.1026502
0.37985246
39.285951
37.657487
35.975856
35.025921
33.861153
33.174779
32.21597
31.596805
30.703807
30.088352
29.221688
28.595134
27.744753
27.105493
26.268045
25.617153
24.790758
24.12963
23.312866
22.642741
21.834439
21.156373
20.355546
19.670455
18.876242
18.184934
17.396567
16.699772
15.916553
15.214937
14.436228
13.730402
12.955617
12.246143
11.47474
10.762137
9.9936205
9.2783654
8.5122752
7.7948102
7.0307206
6.3114568
5.5489706
4.8282928
4.0670363
3.3453084
2.5849271
1.8624981
1.1026503
0.37985245
39.291355
37.661081
35.97776
35.026754
33.861466
33.174872
32.216013
31.596824
30.703811
30.088359
29.221687
28.595133
27.744753
27.105493
26.268046
25.617153
24.790759
24.12963
23.312866
22.642741
21.834439
21.156373
20.355547
19.670455
18.876242
18.184934
17.396567
16.699772
15.916553
15.214937
14.436228
13.730402
12.955617
12.246143
11.474741
10.762137
9.9936206
9.2783653
8.5122752
7.7948101
7.0307206
6.3114568
5.5489706
4.8282928
4.0670364
3.3453084
2.5849271
1.8624981
1.1026504
0.37985243
39.301534
37.665673
35.979674
35.02767
33.86181
33.174978
32.216061
31.596845
30.703816
30.088367
29.221685
28.595133
27.744754
27.105493
26.268046
25.617153
24.790759
24.12963
23.312866
22.64274
21.834439
21.156373
20.355547
19.670454
18.876242
18.184934
17.396567
16.699772
15.916553
15.214937
14.436228