/*--------------------------------*- C++ -*----------------------------------*\
| =========                 |                                                 |
| \\      /  F ield         | OpenFOAM: The Open Source CFD Toolbox           |
|  \\    /   O peration     | Version:  2312                                  |
|   \\  /    A nd           | Website:  www.openfoam.com                      |
|    \\/     M anipulation  |                                                 |
\*---------------------------------------------------------------------------*/
FoamFile
{
    version     2.0;
    format      ascii;
    arch        "LSB;label=32;scalar=64";
    class       volScalarField;
    location    "4";
    object      T;
}
// * * * * * * * * * * * * * * * * * * * * * * * * * * * * * * * * * * * * * //

dimensions      [0 0 0 1 0 0 0];

internalField   nonuniform List<scalar> 
4000
(
312.47901
311.77958
311.64196
311.60362
311.5595
311.52964
311.50094
311.47562
311.45123
311.42867
311.40622
311.38507
311.36381
311.34348
311.32306
311.30326
311.28345
311.26402
311.24468
311.22551
311.20655
311.18757
311.16891
311.15008
311.13167
311.11295
311.09476
311.07611
311.05811
311.03952
311.02168
311.00314
310.98545
310.96694
310.94938
310.93089
310.91345
310.89497
310.87765
310.85916
310.84197
310.82345
310.80638
310.78782
310.7709
310.75226
310.73552
310.71671
310.7003
310.68087
313.66701
312.5381
312.16566
312.08486
311.98749
311.93255
311.8812
311.8399
311.80144
311.76842
311.73575
311.70696
311.67787
311.65155
311.62496
311.60022
311.57549
311.55184
311.52853
311.50566
311.48347
311.46118
311.4399
311.41805
311.39751
311.376
311.3561
311.33483
311.31549
311.29441
311.27556
311.25462
311.23619
311.21535
311.19733
311.17654
311.15889
311.13812
311.12083
311.10003
311.08311
311.06224
311.0457
311.02469
311.00859
310.98733
310.97178
310.95005
310.93547
310.91193
314.40039
313.26732
312.68495
312.56275
312.41353
312.33382
312.26016
312.20297
312.15061
312.10715
312.06437
312.02796
311.99112
311.95879
311.92611
311.89642
311.86681
311.83894
311.81168
311.78512
311.75972
311.73413
311.71024
311.68537
311.66273
311.63841
311.61684
311.59294
311.57228
311.54869
311.52884
311.50549
311.48636
311.46317
311.4447
311.4216
311.40376
311.38068
311.36344
311.34033
311.3237
311.30046
311.28446
311.261
311.24572
311.22185
311.20749
311.18283
311.17007
311.14263
314.88599
313.94244
313.19229
313.03267
312.83472
312.73122
312.63608
312.56333
312.49748
312.44371
312.3911
312.3471
312.30271
312.26439
312.22576
312.19112
312.15674
312.12465
312.09354
312.06327
312.03475
312.00583
311.9794
311.9515
311.92681
311.89968
311.87646
311.84993
311.82798
311.80189
311.78107
311.7553
311.73549
311.70994
311.69105
311.66564
311.64762
311.62225
311.60507
311.57964
311.5633
311.53771
311.52226
311.49634
311.48189
311.45541
311.44224
311.41468
311.40369
311.37264
315.22211
314.54122
313.67785
313.48843
313.24708
313.12175
313.00662
312.91901
312.8404
312.7766
312.7146
312.66317
312.61153
312.56731
312.52296
312.48342
312.44446
312.40816
312.37334
312.33939
312.30784
312.27562
312.24673
312.21581
312.18914
312.15921
312.13442
312.10525
312.08207
312.05347
312.03173
312.00355
311.98309
311.9552
311.93591
311.90819
311.89002
311.86235
311.84525
311.81751
311.80149
311.77354
311.75865
311.7303
311.71668
311.68762
311.67562
311.64521
311.63589
311.60158
315.46246
315.05044
314.13145
313.9228
313.64583
313.50177
313.36889
313.2676
313.17731
313.10402
313.03328
312.97471
312.91629
312.86634
312.8166
312.77226
312.72897
312.68855
312.65022
312.61262
312.57822
312.54273
312.51152
312.47761
312.44906
312.41635
312.39007
312.35828
312.33395
312.30286
312.28025
312.24967
312.22862
312.19839
312.17876
312.14874
312.13045
312.10051
312.08351
312.05349
312.03779
312.00752
311.99319
311.96243
311.94964
311.91804
311.90718
311.874
311.86622
311.82903
315.63792
315.4634
314.54387
314.32828
314.02581
313.8672
313.71963
313.60636
313.50588
313.42389
313.34534
313.28008
313.21549
313.16009
313.10541
313.05648
313.0092
312.96478
312.9232
312.88206
312.84502
312.80631
312.77296
312.73611
312.70583
312.67039
312.64273
312.60836
312.58297
312.54942
312.52603
312.49309
312.4715
312.43897
312.41904
312.38677
312.3684
312.3362
312.31935
312.28706
312.27172
312.23915
312.2254
312.19228
312.1803
312.14623
312.13646
312.10066
312.09422
312.05452
315.76844
315.78216
314.90851
314.69795
314.38194
314.21384
314.05537
313.93238
313.82357
313.734
313.64878
313.57748
313.50751
313.44708
313.38803
313.33477
313.28393
313.23571
313.19123
313.14669
313.10727
313.06548
313.03019
312.99049
312.95866
312.92055
312.89166
312.85478
312.82845
312.7925
312.76843
312.73317
312.71113
312.67635
312.65619
312.62169
312.6033
312.5689
312.55222
312.51773
312.50276
312.46796
312.45478
312.41938
312.40819
312.37175
312.36299
312.32473
312.31946
312.27758
315.8674
316.01459
315.2216
315.02645
314.70971
314.53768
314.37267
314.24268
314.12779
314.03203
313.94154
313.86503
313.79064
313.72571
313.663
313.60579
313.55192
313.50017
313.45319
313.40546
313.36398
313.31927
313.2823
313.23988
313.2067
313.16605
313.1361
313.09681
313.06967
313.03141
313.00676
312.96927
312.94687
312.90991
312.88958
312.85295
312.83458
312.79806
312.78158
312.74497
312.73039
312.69344
312.68083
312.64324
312.63281
312.59413
312.5863
312.54578
312.54146
312.49774
315.94415
316.17318
315.48274
315.31064
315.00557
314.83519
314.66835
314.53445
314.41599
314.3157
314.22153
314.14084
314.06312
313.99439
313.92881
313.86814
313.81184
313.75693
313.70791
313.65727
313.61411
313.56669
313.52835
313.48339
313.44911
313.40606
313.37524
313.33366
313.30588
313.26542
313.24033
313.20071
313.17806
313.13902
313.11861
313.07993
313.06165
313.0231
313.00688
312.96824
312.95407
312.91508
312.90304
312.86338
312.85367
312.8129
312.80591
312.76335
312.75978
312.7145
316.00534
316.27264
315.69429
315.5499
315.26718
315.10361
314.93972
314.80517
314.68581
314.58288
314.48678
314.40308
314.32328
314.25155
314.184
314.12046
314.06241
314.00478
313.95425
313.90104
313.85661
313.80676
313.76737
313.72011
313.68499
313.63974
313.60828
313.56458
313.53634
313.49383
313.46845
313.42683
313.40404
313.36305
313.34266
313.30205
313.28392
313.24347
313.22754
313.18699
313.17325
313.13235
313.12087
313.0793
313.07026
313.02759
313.02132
312.97697
312.97398
312.92739
316.0556
316.32829
315.86105
315.74597
315.49356
315.34123
315.18477
315.0528
314.93527
314.83167
314.73549
314.6501
314.56951
314.49571
314.42716
314.36141
314.30236
314.24252
314.19107
314.13569
314.09045
314.0385
313.99844
313.94915
313.91349
313.86626
313.83441
313.7888
313.76029
313.71592
313.6904
313.64696
313.62415
313.58137
313.56108
313.5187
313.5008
313.45859
313.443
313.4007
313.38741
313.34476
313.33382
313.29052
313.28209
313.23773
313.23208
313.1862
313.18362
313.13595
316.09821
316.35428
315.98925
315.90239
315.68512
315.54743
315.40233
315.27593
315.16283
315.06057
314.96616
314.88043
314.80043
314.72552
314.65701
314.5898
314.53052
314.46905
314.41729
314.36021
314.31465
314.26098
314.22064
314.16963
314.13376
314.08484
314.05285
314.00556
313.977
313.93098
313.90549
313.86043
313.83775
313.79335
313.77328
313.72931
313.71171
313.66791
313.6527
313.60883
313.596
313.55179
313.54138
313.49654
313.48867
313.44285
313.43771
313.39055
313.38827
313.33971
316.1353
316.3624
316.08579
316.02401
315.84365
315.7228
315.5921
315.47385
315.36753
315.2685
315.17764
315.09294
315.01487
314.93989
314.87244
314.80455
314.74586
314.68338
314.63194
314.57366
314.52831
314.47333
314.43313
314.38076
314.34501
314.2947
314.26285
314.21417
314.18578
314.13835
314.11308
314.06661
314.0442
313.99841
313.97866
313.93329
313.91608
313.87088
313.85612
313.81086
313.79851
313.75295
313.74305
313.69689
313.68953
313.64249
313.63778
313.5896
313.58752
313.53826
316.16837
316.36167
316.15742
316.11638
315.97202
315.86896
315.7547
315.64659
315.549
315.4549
315.36921
315.28684
315.21198
315.13793
315.07256
315.00479
314.9475
314.88465
314.83419
314.77524
314.73061
314.67477
314.63514
314.5818
314.54652
314.49516
314.46374
314.41395
314.38597
314.3374
314.31255
314.26491
314.24293
314.19596
314.17667
314.13012
314.11337
314.06701
314.05273
314.00631
313.99447
313.94777
313.93836
313.89113
313.88422
313.83621
313.83185
313.78289
313.78095
313.73118
316.19828
316.3581
316.2103
316.1852
316.0739
315.98841
315.89155
315.79492
315.70752
315.61975
315.5406
315.46174
315.39124
315.31909
315.25673
315.18988
315.13475
315.07219
315.02334
314.96428
314.92088
314.86466
314.82602
314.7721
314.73766
314.6856
314.65489
314.60432
314.57698
314.52758
314.50332
314.4548
314.43339
314.38551
314.36677
314.31929
314.30309
314.2558
314.24206
314.19472
314.1834
314.13581
314.12689
314.07883
314.07233
314.02361
314.01952
313.97004
313.96819
313.91808
316.22563
316.35528
316.24965
316.23585
316.15335
316.08427
316.00476
315.92023
315.84394
315.76355
315.69201
315.61765
315.55249
315.48311
315.42462
315.35943
315.30717
315.24553
315.19888
315.14025
315.09858
315.04245
315.00522
314.95115
314.91788
314.86549
314.83579
314.78477
314.75831
314.70837
314.68491
314.63579
314.6151
314.56658
314.54851
314.50037
314.4848
314.43683
314.42367
314.37567
314.36489
314.31666
314.30822
314.25958
314.25347
314.20428
314.20043
314.15065
314.14887
314.0986
316.25076
316.35486
316.27963
316.27308
316.21451
316.15995
316.0969
316.02443
315.95965
315.88726
315.82407
315.75497
315.69593
315.63006
315.57615
315.51329
315.46453
315.40442
315.36051
315.30284
315.26336
315.20778
315.17234
315.11854
315.08676
315.03444
315.00601
314.95488
314.92954
314.87938
314.85689
314.80747
314.78766
314.73877
314.72149
314.67295
314.6581
314.60971
314.5972
314.54879
314.53857
314.48996
314.48199
314.43304
314.42729
314.37789
314.37425
314.32439
314.32267
314.27243
316.2739
316.35723
316.30335
316.30083
316.26126
316.21895
316.17083
316.10982
316.05642
315.99228
315.93781
315.87449
315.82211
315.76033
315.71155
315.6516
315.60687
315.54882
315.50811
315.45189
315.41501
315.36044
315.32714
315.27401
315.24404
315.19214
315.16524
315.11436
315.09033
315.04027
315.01894
314.96952
314.95072
314.90176
314.88538
314.83672
314.82265
314.77412
314.7623
314.71375
314.70412
314.65539
314.6479
314.5989
314.59348
314.54412
314.54067
314.49095
314.4893
314.43926
316.29525
316.36211
316.32303
316.32215
316.29706
316.2646
316.22947
316.17888
316.13629
316.08028
316.03457
315.97729
315.93186
315.87459
315.83133
315.77475
315.73444
315.67892
315.64179
315.58746
315.55353
315.50037
315.46952
315.41746
315.38954
315.33843
315.31329
315.26299
315.24047
315.19084
315.17081
315.12169
315.10404
315.0553
315.03991
314.99141
314.97821
314.9298
314.91873
314.87029
314.86128
314.8127
314.80569
314.75688
314.7518
314.70271
314.69945
314.65009
314.6485
314.59886
316.31492
316.36885
316.34012
316.33928
316.3248
316.29989
316.27566
316.23416
316.20148
316.15314
316.11593
316.0647
316.02629
315.97376
315.93624
315.88336
315.84774
315.79511
315.76185
315.70979
315.67906
315.6277
315.59955
315.54889
315.52327
315.47328
315.4501
315.40069
315.37986
315.33095
315.31238
315.26386
315.24746
315.19921
315.18492
315.13684
315.12458
315.07657
315.06627
315.01822
315.00985
314.96167
314.95515
314.90678
314.90205
314.85345
314.85039
314.80158
314.80007
314.75102
316.33308
316.37681
316.35551
316.35377
316.3468
316.32737
316.31196
316.27808
316.25418
316.21285
316.18361
316.13824
316.10669
316.05896
316.0272
315.97823
315.94743
315.89797
315.86876
315.81927
315.79195
315.74269
315.71743
315.6685
315.64534
315.59678
315.57571
315.52751
315.5085
315.4606
315.4436
315.39595
315.38091
315.33344
315.3203
315.27293
315.26165
315.21429
315.20483
315.15741
315.1497
315.10216
315.09615
315.04845
315.04407
314.99618
314.99333
314.94527
314.94386
314.89558
316.34983
316.38539
316.3697
316.36661
316.36479
316.34913
316.34062
316.31288
316.29653
316.26137
316.23939
316.19951
316.17447
316.13145
316.10534
316.06034
316.03438
315.98825
315.96316
315.91647
315.89267
315.84576
315.82351
315.77658
315.75601
315.70915
315.69031
315.64358
315.62649
315.57988
315.56454
315.51803
315.50442
315.45798
315.44607
315.39964
315.3894
315.34294
315.33433
315.28778
315.28077
315.2341
315.22861
315.1818
315.17778
315.13081
315.12818
315.08106
315.07975
315.03242
316.36531
316.39421
316.38295
316.37841
316.38003
316.36678
316.36351
316.34053
316.33047
316.30057
316.28502
316.25012
316.2311
316.19257
316.17183
316.13077
316.10953
316.06682
316.04583
316.00208
315.98183
315.93746
315.91829
315.87355
315.85565
315.81072
315.79419
315.74915
315.73407
315.68897
315.67537
315.63023
315.61811
315.57292
315.56229
315.51704
315.50787
315.46253
315.45481
315.40936
315.40305
315.35746
315.35252
315.30679
315.30315
315.25729
315.25489
315.20889
315.20769
315.16149
316.37964
316.40296
316.39539
316.38947
316.39338
316.38155
316.38211
316.3627
316.35772
316.33216
316.32215
316.29166
316.27806
316.24368
316.22796
316.19069
316.17395
316.13463
316.11763
316.07689
316.06015
316.01844
316.00233
315.95996
315.94474
315.90192
315.88773
315.84459
315.83155
315.78817
315.77633
315.73277
315.72218
315.67846
315.66913
315.62526
315.61719
315.57318
315.56637
315.52221
315.51662
315.47231
315.46791
315.42346
315.42021
315.37562
315.37348
315.32875
315.32768
315.28277
316.39294
316.41151
316.40705
316.39996
316.40536
316.39427
316.39758
316.38072
316.37974
316.35766
316.3523
316.32559
316.31675
316.28614
316.27497
316.24128
316.22873
316.19272
316.1795
316.14177
316.12841
316.08943
316.07633
316.03642
316.02385
315.98327
315.97141
315.93032
315.91932
315.87783
315.86777
315.82596
315.8169
315.77483
315.76681
315.72451
315.71755
315.67505
315.66915
315.62646
315.62161
315.57875
315.57491
315.5319
315.52905
315.48589
315.48401
315.44071
315.43977
315.3963
316.4053
316.41977
316.41797
316.40992
316.41633
316.40553
316.41076
316.39565
316.39772
316.37836
316.37679
316.35326
316.3485
316.32123
316.31409
316.2837
316.27497
316.24211
316.23242
316.19764
316.18748
316.15123
316.141
316.10362
316.09361
316.05536
316.04579
316.00686
315.99786
315.95839
315.95008
315.91017
315.90264
315.86236
315.85565
315.81507
315.80922
315.76838
315.76339
315.72233
315.71821
315.67694
315.67367
315.63224
315.6298
315.58822
315.58659
315.54487
315.54405
315.50216
316.41681
316.42771
316.42817
316.41937
316.42647
316.4157
316.42224
316.4083
316.41263
316.39532
316.39676
316.37585
316.37449
316.35012
316.34648
316.31907
316.31375
316.28383
316.27736
316.24541
316.23823
316.20466
316.19715
316.16229
316.15473
316.11885
316.11146
316.07476
316.06771
316.03035
316.02375
315.98584
315.9798
315.94144
315.93601
315.89728
315.89251
315.85346
315.84938
315.81006
315.80667
315.76713
315.76442
315.72469
315.72266
315.68277
315.68141
315.64137
315.64069
315.60048
316.42756
316.43532
316.43767
316.4283
316.43589
316.42503
316.43243
316.41923
316.42519
316.4094
316.41317
316.39436
316.39577
316.37387
316.37319
316.34844
316.3461
316.31889
316.31529
316.28601
316.28154
316.25056
316.24555
316.21318
316.20791
316.17441
316.16908
316.13465
316.12945
316.09425
316.0893
316.05346
316.04885
316.0125
316.00831
315.97151
315.9678
315.93064
315.92743
315.88997
315.88728
315.84957
315.84741
315.80948
315.80786
315.76976
315.76867
315.73041
315.72986
315.69144
316.4376
316.4426
316.4465
316.4367
316.44464
316.43364
316.4416
316.42886
316.43595
316.42127
316.42677
316.40964
316.41324
316.39342
316.39518
316.37276
316.37295
316.34819
316.34711
316.32033
316.31827
316.28976
316.28702
316.25706
316.25389
316.22273
316.21932
316.18716
316.18368
316.15068
316.14726
316.11355
316.1103
316.076
316.07299
316.0382
316.03549
316.0003
315.99793
315.96239
315.96039
315.92458
315.92296
315.88691
315.88569
315.84944
315.84862
315.81222
315.8118
315.77525
316.44699
316.44955
316.45468
316.44457
316.45275
316.44161
316.44992
316.43746
316.4453
316.43142
316.43819
316.42236
316.42765
316.40955
316.41328
316.39287
316.39517
316.37261
316.37368
316.34918
316.34924
316.32305
316.32233
316.29468
316.2934
316.26451
316.26286
316.23292
316.23104
316.20021
316.19823
316.16665
316.16467
316.13245
316.13055
316.0978
316.09604
316.06285
316.06128
316.02772
316.02638
315.99251
315.99141
315.95729
315.95645
315.92213
315.92156
315.88706
315.88677
315.85214
316.45578
316.45618
316.46225
316.4519
316.46023
316.44898
316.45748
316.44521
316.45353
316.44023
316.44786
316.43306
316.4396
316.42292
316.42819
316.40951
316.41352
316.39291
316.39577
316.37336
316.37522
316.35118
316.35222
316.32676
316.32715
316.30045
316.30036
316.27259
316.27215
316.24346
316.24279
316.21332
316.2125
316.18236
316.18149
316.15079
316.14992
316.11874
316.11793
316.08636
316.08563
316.05375
316.05313
316.02098
316.0205
315.98813
315.9878
315.95525
315.95508
315.9224
316.464
316.46246
316.46922
316.45869
316.46708
316.45577
316.46436
316.45223
316.46081
316.44795
316.45615
316.44216
316.44959
316.43408
316.4405
316.4233
316.42866
316.40976
316.41408
316.39355
316.39691
316.37486
316.37739
316.35397
316.35582
316.33119
316.33247
316.30679
316.30763
316.28102
316.28152
316.25411
316.25435
316.22626
316.22632
316.19765
316.19759
316.16844
316.16831
316.13875
316.13858
316.10868
316.10852
316.07834
316.07819
316.04779
316.04768
316.0171
316.01704
315.98633
316.47166
316.46839
316.47558
316.46492
316.47331
316.46197
316.47057
316.45858
316.46728
316.45478
316.46331
316.44997
316.45799
316.44346
316.45071
316.43478
316.44116
316.42375
316.42922
316.41037
316.41496
316.39471
316.39849
316.37697
316.38003
316.35736
316.35982
316.33612
316.33807
316.31347
316.31499
316.28959
316.29076
316.26468
316.26557
316.2389
316.23957
316.2124
316.21289
316.1853
316.18566
316.15773
316.15798
316.12976
316.12992
316.10147
316.10157
316.07295
316.073
316.04424
316.47877
316.47391
316.48134
316.47058
316.4789
316.46759
316.47614
316.46432
316.47302
316.46083
316.46952
316.45673
316.46511
316.45139
316.45921
316.44436
316.45148
316.43538
316.44172
316.42437
316.42991
316.41131
316.41609
316.39631
316.40039
316.37954
316.38298
316.36116
316.36405
316.34135
316.34375
316.32028
316.32226
316.29812
316.29973
316.275
316.27631
316.25108
316.25213
316.22648
316.2273
316.2013
316.20192
316.17563
316.17607
316.14956
316.14984
316.12315
316.12329
316.09648
316.48529
316.47897
316.48646
316.47566
316.48385
316.47263
316.48107
316.46945
316.47809
316.46621
316.47492
316.46261
316.47117
316.45815
316.46632
316.45239
316.46001
316.44507
316.45204
316.43601
316.44227
316.42515
316.43071
316.41254
316.41741
316.39825
316.4025
316.38242
316.38609
316.3652
316.36833
316.3467
316.34936
316.32707
316.32931
316.30645
316.30831
316.28495
316.28648
316.26271
316.26393
316.23982
316.24076
316.21636
316.21705
316.19242
316.19287
316.16807
316.16829
316.14337
316.49111
316.48349
316.49092
316.48013
316.48816
316.47708
316.48539
316.47401
316.48252
316.47096
316.4796
316.46774
316.47633
316.46394
316.47227
316.45917
316.46708
316.45315
316.46053
316.44569
316.45247
316.43668
316.44281
316.42609
316.43158
316.41397
316.41885
316.4004
316.40469
316.38548
316.38922
316.36931
316.37253
316.352
316.35476
316.33368
316.336
316.31445
316.31638
316.29442
316.29599
316.27369
316.27491
316.25233
316.25324
316.23043
316.23103
316.20806
316.20835
316.18528
316.49608
316.48739
316.49468
316.48397
316.49184
316.48095
316.48911
316.47801
316.48636
316.47513
316.48364
316.4722
316.48073
316.4689
316.47727
316.46489
316.47295
316.45991
316.46753
316.45375
316.46085
316.44626
316.45279
316.43739
316.44332
316.42713
316.43247
316.41553
316.42029
316.40265
316.40685
316.38856
316.39223
316.37336
316.37653
316.35714
316.35984
316.34
316.34226
316.32203
316.32388
316.30332
316.30477
316.28394
316.28502
316.26398
316.26469
316.24349
316.24384
316.22254
316.5
316.49058
316.49772
316.48719
316.49488
316.48426
316.49224
316.48146
316.48963
316.47876
316.48709
316.47608
316.48446
316.47316
316.48145
316.46974
316.4778
316.46557
316.47329
316.46045
316.46773
316.45422
316.46098
316.44678
316.45299
316.4381
316.44376
316.42819
316.43329
316.4171
316.42164
316.40486
316.40887
316.39154
316.39503
316.37723
316.38022
316.36199
316.36451
316.34592
316.34799
316.32909
316.33072
316.31156
316.31278
316.29341
316.29422
316.2747
316.27511
316.2555
316.50272
316.49301
316.50005
316.48979
316.49732
316.48701
316.49482
316.4844
316.49237
316.48188
316.49
316.47942
316.4876
316.47682
316.48495
316.47385
316.48182
316.47032
316.47801
316.46602
316.47334
316.4608
316.46767
316.45454
316.46091
316.44719
316.45304
316.43874
316.44405
316.42919
316.43396
316.41857
316.42281
316.40692
316.41064
316.39431
316.39752
316.3808
316.38351
316.36646
316.3687
316.35135
316.35313
316.33554
316.33687
316.31909
316.31997
316.30205
316.30249
316.28449
316.50426
316.4947
316.50171
316.49181
316.49919
316.48925
316.49688
316.48686
316.4946
316.48453
316.49241
316.48227
316.49022
316.47993
316.48785
316.47732
316.48512
316.47429
316.48186
316.47064
316.4779
316.46623
316.47309
316.46094
316.46735
316.45469
316.46062
316.44746
316.45288
316.43923
316.44413
316.43002
316.43439
316.41984
316.42369
316.40874
316.41208
316.39677
316.39961
316.38399
316.38635
316.37046
316.37233
316.35622
316.35762
316.34134
316.34227
316.32585
316.32632
316.30982
316.50478
316.49573
316.50275
316.49329
316.50054
316.49101
316.49845
316.48885
316.49638
316.48674
316.49437
316.48467
316.49236
316.48255
316.49022
316.48024
316.4878
316.47759
316.48497
316.47446
316.48156
316.47069
316.47745
316.46617
316.47252
316.46082
316.46673
316.45461
316.46004
316.4475
316.45244
316.43949
316.44392
316.43058
316.4345
316.42081
316.42422
316.41021
316.41313
316.39884
316.40126
316.38672
316.38865
316.37392
316.37536
316.36047
316.36143
316.34642
316.3469
316.33181
316.50459
316.49623
316.50328
316.4943
316.50143
316.49235
316.49959
316.49044
316.49774
316.48854
316.49591
316.48666
316.49407
316.48474
316.49212
316.48267
316.48996
316.48032
316.48745
316.47758
316.48447
316.47431
316.48089
316.4704
316.47662
316.46579
316.47159
316.4604
316.46577
316.45423
316.45912
316.44723
316.45164
316.43942
316.44334
316.4308
316.43422
316.42141
316.42434
316.41127
316.41371
316.40043
316.40238
316.38892
316.39039
316.37678
316.37775
316.36404
316.36453
316.35075
316.504
316.49636
316.5034
316.49493
316.50192
316.49331
316.50035
316.49166
316.49872
316.48997
316.49707
316.48828
316.49539
316.48654
316.49361
316.48465
316.49164
316.48254
316.48937
316.48009
316.48671
316.4772
316.48354
316.47378
316.47978
316.46973
316.47536
316.46502
316.47025
316.45961
316.4644
316.45346
316.45779
316.44657
316.45044
316.43895
316.44233
316.4306
316.43351
316.42156
316.42399
316.41185
316.41379
316.4015
316.40296
316.39053
316.39151
316.37899
316.37948
316.3669
316.50325
316.49624
316.50322
316.49525
316.50209
316.49395
316.50078
316.49255
316.49937
316.49108
316.4979
316.48957
316.49637
316.48797
316.49472
316.48624
316.49289
316.4843
316.4908
316.48207
316.48838
316.47946
316.48551
316.47639
316.48214
316.47279
316.4782
316.46861
316.47364
316.46381
316.46844
316.45837
316.46256
316.45225
316.456
316.44547
316.44876
316.43802
316.44086
316.42993
316.43231
316.42122
316.42312
316.41189
316.41332
316.40198
316.40294
316.39152
316.392
316.38053
316.50246
316.49599
316.50283
316.49533
316.502
316.49432
316.50093
316.49316
316.49972
316.49189
316.49842
316.49054
316.49703
316.48908
316.49549
316.48746
316.49376
316.48564
316.49179
316.48355
316.48952
316.48114
316.48687
316.47833
316.48378
316.47506
316.48019
316.47129
316.47608
316.46698
316.47139
316.46209
316.46611
316.45662
316.46022
316.45054
316.45371
316.44386
316.4466
316.43659
316.43888
316.42874
316.43058
316.42032
316.42171
316.41136
316.41228
316.40186
316.40232
316.39185
316.50169
316.49566
316.50228
316.49524
316.5017
316.49448
316.50086
316.49353
316.49983
316.49244
316.49868
316.49123
316.49739
316.48987
316.49593
316.48833
316.49427
316.48658
316.49236
316.48459
316.49018
316.48229
316.48767
316.47965
316.48477
316.47661
316.48144
316.47314
316.47766
316.46921
316.47338
316.46477
316.46857
316.45981
316.46323
316.45432
316.45733
316.44828
316.45089
316.44171
316.4439
316.43461
316.43637
316.42699
316.42832
316.41885
316.41974
316.41021
316.41066
316.4011
316.50093
316.4953
316.50165
316.49502
316.50125
316.49447
316.50059
316.4937
316.49973
316.49277
316.4987
316.49166
316.49749
316.49037
316.49607
316.48887
316.49443
316.48715
316.49255
316.48518
316.4904
316.48295
316.48795
316.4804
316.48516
316.47751
316.48201
316.47425
316.47846
316.47059
316.47449
316.4665
316.47006
316.46195
316.46515
316.45693
316.45976
316.45143
316.45388
316.44546
316.44752
316.439
316.44066
316.43206
316.43332
316.42465
316.42549
316.41678
316.4172
316.40845
316.50019
316.49492
316.50096
316.49472
316.50069
316.49432
316.50018
316.4937
316.49945
316.49289
316.49851
316.49186
316.49734
316.4906
316.49592
316.48909
316.49426
316.48735
316.49234
316.48536
316.49017
316.48312
316.48773
316.4806
316.48499
316.47779
316.48194
316.47466
316.47855
316.47119
316.4748
316.46736
316.47065
316.46313
316.4661
316.45849
316.46112
316.45343
316.45571
316.44795
316.44987
316.44204
316.44359
316.4357
316.43687
316.42892
316.42971
316.42172
316.42211
316.4141
316.49944
316.49454
316.50023
316.49435
316.50005
316.49407
316.49965
316.49356
316.49901
316.49283
316.49812
316.49183
316.49694
316.49054
316.49548
316.48899
316.49375
316.48717
316.49175
316.48511
316.48952
316.48281
316.48703
316.48027
316.48428
316.47748
316.48127
316.47442
316.47797
316.47107
316.47437
316.46741
316.47044
316.46342
316.46615
316.45908
316.46151
316.45438
316.45649
316.44931
316.45108
316.44386
316.44529
316.43803
316.43911
316.4318
316.43253
316.42519
316.42556
316.4182
316.49868
316.49416
316.49947
316.49393
316.49935
316.49373
316.49903
316.4933
316.49844
316.49259
316.49754
316.49157
316.4963
316.49021
316.49474
316.48855
316.49289
316.48661
316.49077
316.48443
316.48842
316.48203
316.48584
316.47942
316.48304
316.47659
316.48002
316.47354
316.47676
316.47025
316.47324
316.46671
316.46946
316.4629
316.46538
316.45879
316.46099
316.45437
316.45629
316.44964
316.45126
316.44458
316.44588
316.43918
316.44016
316.43343
316.43409
316.42733
316.42766
316.42088
316.49791
316.49377
316.49869
316.49348
316.4986
316.49333
316.49833
316.49293
316.49773
316.49219
316.49676
316.49107
316.49541
316.48958
316.49369
316.48775
316.49167
316.48565
316.48939
316.48331
316.48688
316.48076
316.48417
316.47804
316.48127
316.47513
316.47819
316.47205
316.47492
316.46878
316.47145
316.4653
316.46776
316.4616
316.46383
316.45767
316.45965
316.45348
316.4552
316.44902
316.45047
316.44428
316.44546
316.43924
316.44013
316.4339
316.4345
316.42825
316.42855
316.42229
316.49711
316.49338
316.4979
316.49301
316.49783
316.49287
316.49755
316.49244
316.49689
316.4916
316.49578
316.49032
316.49424
316.48863
316.49231
316.48658
316.49006
316.48426
316.48756
316.48171
316.48486
316.47899
316.48198
316.47611
316.47896
316.47309
316.47579
316.46994
316.47248
316.46665
316.46901
316.4632
316.46537
316.45958
316.46155
316.45577
316.45753
316.45175
316.45328
316.44751
316.44881
316.44304
316.44409
316.43832
316.43911
316.43333
316.43386
316.42807
316.42834
316.42253
316.49629
316.49298
316.49708
316.49251
316.49702
316.49236
316.4967
316.49183
316.49589
316.49082
316.49456
316.48929
316.49275
316.48732
316.49055
316.485
316.48803
316.48241
316.48527
316.47962
316.48234
316.47669
316.47928
316.47363
316.47609
316.47048
316.47281
316.46723
316.46943
316.46389
316.46594
316.46044
316.46233
316.45685
316.45858
316.45313
316.45467
316.44925
316.45059
316.44519
316.44633
316.44094
316.44186
316.43648
316.43718
316.43179
316.43226
316.42687
316.42711
316.42171
316.49544
316.49257
316.49624
316.49198
316.49618
316.49178
316.49576
316.49108
316.49472
316.48979
316.49308
316.48793
316.49092
316.48562
316.48837
316.48296
316.48553
316.48006
316.48249
316.477
316.4793
316.47383
316.47602
316.47058
316.47267
316.46727
316.46926
316.46391
316.46579
316.4605
316.46226
316.45702
316.45864
316.45346
316.45494
316.44979
316.45112
316.44601
316.44718
316.4421
316.44309
316.43803
316.43884
316.4338
316.43441
316.42937
316.42978
316.42475
316.42496
316.41992
316.49455
316.49215
316.49538
316.49144
316.4953
316.49112
316.4947
316.49015
316.49332
316.48847
316.49126
316.4862
316.48868
316.48346
316.48573
316.48042
316.48252
316.47718
316.47916
316.47382
316.47571
316.47039
316.4722
316.46694
316.46866
316.46346
316.46511
316.45998
316.46155
316.45649
316.45796
316.45297
316.45433
316.4494
316.45065
316.44578
316.4469
316.44208
316.44307
316.43829
316.43913
316.43438
316.43506
316.43034
316.43086
316.42614
316.42649
316.42178
316.42195
316.41723
316.49361
316.49173
316.49449
316.49087
316.49436
316.49035
316.49347
316.48898
316.49163
316.4868
316.48905
316.48401
316.48597
316.4808
316.48256
316.47732
316.47896
316.47371
316.47526
316.47004
316.47152
316.46635
316.46778
316.46268
316.46406
316.45904
316.46037
316.45543
316.4567
316.45185
316.45305
316.44829
316.44941
316.44471
316.44575
316.44112
316.44205
316.43749
316.43831
316.4338
316.4345
316.43002
316.43059
316.42615
316.42658
316.42215
316.42245
316.41802
316.41817
316.41374
316.49263
316.49131
316.49358
316.49026
316.49333
316.48942
316.49202
316.4875
316.48958
316.4847
316.48638
316.48131
316.48272
316.47756
316.47882
316.47362
316.47479
316.46962
316.47074
316.46562
316.46672
316.46168
316.46275
316.4578
316.45884
316.45399
316.45502
316.45027
316.45126
316.4466
316.44755
316.44299
316.44389
316.43941
316.44024
316.43584
316.43659
316.43227
316.43293
316.42866
316.42923
316.42501
316.42548
316.42128
316.42164
316.41747
316.41771
316.41354
316.41367
316.4095
316.49158
316.49091
316.49263
316.48961
316.49217
316.48826
316.49027
316.48562
316.48707
316.48208
316.48314
316.47801
316.47886
316.47367
316.47443
316.46925
316.46997
316.46486
316.46557
316.46055
316.46127
316.45635
316.45708
316.45227
316.45301
316.44832
316.44906
316.44448
316.44521
316.44074
316.44146
316.43709
316.43778
316.43351
316.43415
316.42996
316.43055
316.42644
316.42696
316.42292
316.42337
316.41938