/*--------------------------------*- C++ -*----------------------------------*\
| =========                 |                                                 |
| \\      /  F ield         | OpenFOAM: The Open Source CFD Toolbox           |
|  \\    /   O peration     | Version:  2312                                  |
|   \\  /    A nd           | Website:  www.openfoam.com                      |
|    \\/     M anipulation  |                                                 |
\*---------------------------------------------------------------------------*/
FoamFile
{
    version     2.0;
    format      ascii;
    arch        "LSB;label=32;scalar=64";
    class       volScalarField;
    location    "10";
    object      p;
}
// * * * * * * * * * * * * * * * * * * * * * * * * * * * * * * * * * * * * * //

dimensions      [0 2 -2 0 0 0 0];

internalField   nonuniform List<scalar> 
4000
(
39.791419
37.74291
35.986782
35.034923
33.864495
33.178187
32.216261
31.598398
30.703341
30.089695
29.220659
28.596711
27.743266
27.107345
26.266211
25.619205
24.788712
24.131806
23.310715
22.644975
21.832252
21.158624
20.353356
19.672703
18.874058
18.187176
17.394384
16.702012
15.914363
15.217183
14.434023
13.732661
12.95339
12.248418
11.47249
10.764431
9.9913468
9.2806764
8.5099808
7.7971363
7.0284092
6.3137946
5.546646
4.8306388
4.0647025
3.3476588
2.5825878
1.8648496
1.1003111
0.38220854
39.755464
37.74208
35.988268
35.034813
33.864582
33.178171
32.216277
31.5984
30.703347
30.089692
29.220664
28.596707
27.74327
27.107341
26.266215
25.619202
24.788715
24.131803
23.310717
22.644972
21.832254
21.158621
20.353359
19.672701
18.87406
18.187174
17.394386
16.70201
15.914365
15.217182
14.434024
13.73266
12.953391
12.248417
11.472491
10.76443
9.991348
9.2806753
8.5099819
7.7971352
7.0284101
6.3137937
5.5466469
4.8306378
4.0647034
3.3476579
2.5825886
1.8648487
1.100312
0.38220687
39.731113
37.742779
35.990464
35.034527
33.864729
33.178156
32.216298
31.598415
30.703349
30.089696
29.220663
28.596708
27.743269
27.107343
26.266214
25.619203
24.788714
24.131803
23.310717
22.644973
21.832253
21.158622
20.353358
19.672701
18.874059
18.187174
17.394386
16.702011
15.914365
15.217182
14.434024
13.73266
12.953391
12.248417
11.472491
10.76443
9.9913476
9.2806756
8.5099816
7.7971355
7.0284099
6.3137939
5.5466467
4.8306381
4.0647032
3.3476581
2.5825884
1.8648489
1.1003119
0.38220629
39.691725
37.738777
35.992559
35.034157
33.864878
33.178133
32.216318
31.598431
30.703347
30.089702
29.22066
28.596711
27.743266
27.107345
26.266212
25.619205
24.788712
24.131805
23.310715
22.644974
21.832252
21.158624
20.353356
19.672703
18.874058
18.187175
17.394385
16.702012
15.914364
15.217183
14.434023
13.732661
12.95339
12.248418
11.47249
10.764431
9.9913469
9.2806764
8.5099809
7.7971362
7.0284092
6.3137946
5.546646
4.8306387
4.0647026
3.3476587
2.5825878
1.8648496
1.1003114
0.38220617
39.638841
37.734858
35.994363
35.033692
33.865043
33.178097
32.216337
31.598443
30.703345
30.089706
29.220657
28.596714
27.743264
27.107347
26.26621
25.619207
24.78871
24.131807
23.310713
22.644976
21.83225
21.158625
20.353355
19.672704
18.874057
18.187177
17.394384
16.702013
15.914363
15.217184
14.434022
13.732662
12.953389
12.248419
11.472489
10.764431
9.9913462
9.280677
8.5099802
7.7971368
7.0284086
6.3137951
5.5466455
4.8306393
4.064702
3.3476592
2.5825873
1.8648501
1.1003109
0.38220609
39.614477
37.73149
35.995592
35.033387
33.865266
33.178052
32.216355
31.598451
30.703343
30.089709
29.220654
28.596716
27.743262
27.107349
26.266208
25.619209
24.788709
24.131809
23.310712
22.644977
21.832249
21.158626
20.353354
19.672705
18.874056
18.187177
17.394383
16.702014
15.914362
15.217185
14.434021
13.732662
12.953388
12.24842
11.472489
10.764432
9.9913457
9.2806775
8.5099798
7.7971373
7.0284082
6.3137956
5.5466451
4.8306397
4.0647016
3.3476596
2.5825869
1.8648506
1.1003105
0.38220601
39.581112
37.729339
35.995575
35.033808
33.865596
33.178007
32.216375
31.598456
30.70334
30.089711
29.220652
28.596717
27.74326
27.10735
26.266207
25.61921
24.788708
24.13181
23.310711
22.644978
21.832248
21.158627
20.353353
19.672705
18.874055
18.187178
17.394382
16.702014
15.914361
15.217185
14.434021
13.732663
12.953388
12.24842
11.472488
10.764432
9.9913453
9.2806779
8.5099794
7.7971376
7.0284078
6.3137959
5.5466447
4.83064
4.0647013
3.34766
2.5825866
1.864851
1.1003101
0.38220593
39.53716
37.728251
35.993923
35.035189
33.865916
33.177961
32.216395
31.598457
30.703337
30.089713
29.22065
28.596718
27.743259
27.107351
26.266206
25.619211
24.788707
24.13181
23.31071
22.644979
21.832248
21.158628
20.353353
19.672706
18.874055
18.187179
17.394381
16.702015
15.914361
15.217186
14.43402
13.732663
12.953387
12.24842
11.472488
10.764433
9.9913449
9.2806782
8.5099791
7.797138
7.0284075
6.3137962
5.5466444
4.8306403
4.064701
3.3476603
2.5825863
1.8648513
1.1003098
0.38220587
39.505974
37.727094
35.99304
35.036912
33.86599
33.177927
32.216416
31.598454
30.703334
30.089713
29.220648
28.596719
27.743258
27.107352
26.266205
25.619212
24.788706
24.131811
23.310709
22.64498
21.832247
21.158628
20.353352
19.672707
18.874054
18.187179
17.394381
16.702015
15.91436
15.217186
14.43402
13.732664
12.953387
12.248421
11.472488
10.764433
9.9913446
9.2806785
8.5099788
7.7971382
7.0284072
6.3137965
5.5466441
4.8306406
4.0647007
3.3476605
2.5825861
1.8648516
1.1003095
0.38220582
39.477751
37.722732
35.993773
35.038065
33.86572
33.177928
32.216434
31.598446
30.703329
30.089713
29.220646
28.59672
27.743256
27.107353
26.266204
25.619212
24.788705
24.131812
23.310709
22.64498
21.832246
21.158629
20.353351
19.672707
18.874054
18.18718
17.394381
16.702016
15.91436
15.217187
14.434019
13.732664
12.953387
12.248421
11.472487
10.764433
9.9913443
9.2806788
8.5099785
7.7971385
7.028407
6.3137967
5.5466439
4.8306408
4.0647005
3.3476607
2.5825859
1.8648519
1.1003092
0.38220579
39.454682
37.71815
35.993909
35.03812
33.86519
33.177932
32.216433
31.598429
30.703322
30.089711
29.220644
28.59672
27.743255
27.107353
26.266203
25.619213
24.788705
24.131813
23.310708
22.644981
21.832246
21.158629
20.353351
19.672708
18.874053
18.18718
17.39438
16.702016
15.91436
15.217187
14.434019
13.732664
12.953386
12.248421
11.472487
10.764434
9.9913441
9.280679
8.5099783
7.7971387
7.0284068
6.313797
5.5466437
4.830641
4.0647003
3.3476609
2.5825857
1.8648521
1.1003089
0.38220577
39.434857
37.712898
35.99235
35.037467
33.864594
33.177883
32.216398
31.5984
30.703311
30.089706
29.22064
28.59672
27.743254
27.107354
26.266202
25.619214
24.788704
24.131813
23.310707
22.644981
21.832245
21.15863
20.353351
19.672708
18.874053
18.18718
17.39438
16.702016
15.914359
15.217187
14.434019
13.732665
12.953386
12.248422
11.472487
10.764434
9.9913439
9.2806792
8.5099781
7.7971389
7.0284066
6.3137971
5.5466435
4.8306412
4.0647001
3.3476611
2.5825855
1.8648523
1.1003086
0.38220575
39.411049
37.707247
35.990173
35.036605
33.864036
33.177754
32.21633
31.598361
30.703297
30.0897
29.220636
28.596719
27.743253
27.107354
26.266202
25.619214
24.788703
24.131814
23.310707
22.644982
21.832245
21.15863
20.35335
19.672708
18.874052
18.187181
17.39438
16.702017
15.914359
15.217188
14.434019
13.732665
12.953386
12.248422
11.472486
10.764434
9.9913437
9.2806794
8.5099779
7.7971391
7.0284064
6.3137973
5.5466434
4.8306413
4.0647
3.3476613
2.5825854
1.8648525
1.1003084
0.38220575
39.390736
37.700514
35.987528
35.035657
33.863493
33.177556
32.216238
31.598314
30.703282
30.089692
29.220632
28.596718
27.743251
27.107355
26.266201
25.619215
24.788703
24.131814
23.310707
22.644982
21.832244
21.158631
20.35335
19.672709
18.874052
18.187181
17.394379
16.702017
15.914359
15.217188
14.434018
13.732665
12.953386
12.248422
11.472486
10.764434
9.9913435
9.2806796
8.5099777
7.7971393
7.0284062
6.3137975
5.5466432
4.8306415
4.0646998
3.3476614
2.5825852
1.8648527
1.1003082
0.38220574
39.371016
37.693782
35.984794
35.034614
33.862927
33.177317
32.216137
31.598262
30.703267
30.089684
29.220627
28.596717
27.74325
27.107355
26.2662
25.619215
24.788702
24.131814
23.310706
22.644982
21.832244
21.158631
20.353349
19.672709
18.874052
18.187181
17.394379
16.702017
15.914358
15.217188
14.434018
13.732665
12.953385
12.248422
11.472486
10.764434
9.9913433
9.2806798
8.5099776
7.7971394
7.0284061
6.3137976
5.5466431
4.8306416
4.0646997
3.3476616
2.5825851
1.8648528
1.1003079
0.38220575
39.351755
37.686502
35.982025
35.033415
33.862314
33.177059
32.216033
31.598208
30.703254
30.089676
29.220622
28.596715
27.743249
27.107355
26.2662
25.619215
24.788702
24.131815
23.310706
22.644983
21.832244
21.158631
20.353349
19.672709
18.874052
18.187182
17.394379
16.702018
15.914358
15.217188
14.434018
13.732665
12.953385
12.248422
11.472486
10.764435
9.9913432
9.2806799
8.5099774
7.7971395
7.028406
6.3137977
5.5466429
4.8306417
4.0646996
3.3476617
2.582585
1.8648529
1.1003077
0.38220575
39.335072
37.680306
35.979731
35.032018
33.861659
33.1768
32.215931
31.598155
30.703242
30.089669
29.220617
28.596714
27.743247
27.107355
26.266199
25.619216
24.788702
24.131815
23.310705
22.644983
21.832243
21.158632
20.353349
19.67271
18.874051
18.187182
17.394379
16.702018
15.914358
15.217188
14.434018
13.732666
12.953385
12.248423
11.472486
10.764435
9.991343
9.28068
8.5099773
7.7971397
7.0284058
6.3137978
5.5466428
4.8306418
4.0646995
3.3476618
2.5825849
1.8648531
1.1003075
0.38220577
39.323015
37.67401
35.977697
35.030507
33.861016
33.176559
32.215836
31.598106
30.703231
30.089662
29.220614
28.596713
27.743246
27.107355
26.266198
25.619216
24.788701
24.131815
23.310705
22.644983
21.832243
21.158632
20.353349
19.67271
18.874051
18.187182
17.394378
16.702018
15.914358
15.217189
14.434018
13.732666
12.953385
12.248423
11.472486
10.764435
9.9913429
9.2806802
8.5099772
7.7971398
7.0284057
6.313798
5.5466427
4.8306419
4.0646994
3.3476619
2.5825848
1.8648532
1.1003073
0.38220578
39.31189
37.668117
35.975909
35.029082
33.860449
33.176351
32.21575
31.598062
30.703222
30.089657
29.220612
28.596712
27.743245
27.107355
26.266198
25.619216
24.788701
24.131816
23.310705
22.644984
21.832243
21.158632
20.353348
19.67271
18.874051
18.187182
17.394378
16.702018
15.914358
15.217189
14.434018
13.732666
12.953385
12.248423
11.472486
10.764435
9.9913428
9.2806803
8.5099771
7.7971399
7.0284056
6.3137981
5.5466426
4.830642
4.0646993
3.347662
2.5825847
1.8648533
1.1003071
0.38220579
39.304477
37.66247
35.973967
35.027822
33.859969
33.17618
32.215677
31.598026
30.703213
30.089651
29.220611
28.596711
27.743244
27.107355
26.266197
25.619216
24.7887
24.131816
23.310705
22.644984
21.832243
21.158632
20.353348
19.67271
18.874051
18.187182
17.394378
16.702018
15.914358
15.217189
14.434017
13.732666
12.953385
12.248423
11.472485
10.764435
9.9913427
9.2806804
8.509977
7.79714
7.0284055
6.3137981
5.5466425
4.8306421
4.0646992
3.3476621
2.5825847
1.8648533
1.100307
0.38220581
39.291965
37.657087
35.972028
35.026721
33.859558
33.176042
32.215615
31.597996
30.703206
30.089645
29.220612
28.596711
27.743244
27.107355
26.266197
25.619216
24.7887
24.131816
23.310704
22.644984
21.832242
21.158632
20.353348
19.67271
18.874051
18.187183
17.394378
16.702018
15.914357
15.217189
14.434017
13.732666
12.953385
12.248423
11.472485
10.764435
9.9913426
9.2806805
8.5099769
7.7971401
7.0284055
6.3137982
5.5466425
4.8306422
4.0646991
3.3476622
2.5825846
1.8648534
1.1003068
0.38220583
39.284227
37.652837
35.970029
35.02574
33.859196
33.175927
32.215563
31.597971
30.7032
30.089638
29.220613
28.596711
27.743243
27.107355
26.266197
25.619217
24.7887
24.131816
23.310704
22.644984
21.832242
21.158633
20.353348
19.672711
18.87405
18.187183
17.394378
16.702019
15.914357
15.217189
14.434017
13.732666
12.953385
12.248423
11.472485
10.764435
9.9913425
9.2806806
8.5099768
7.7971401
7.0284054
6.3137983
5.5466424
4.8306423
4.064699
3.3476622
2.5825845
1.8648535
1.1003066
0.38220585
39.275238
37.648458
35.968123
35.02486
33.858871
33.175828
32.215517
31.597949
30.703196
30.089631
29.220614
28.596711
27.743242
27.107355
26.266196
25.619217
24.788699
24.131816
23.310704
22.644984
21.832242
21.158633
20.353348
19.672711
18.87405
18.187183
17.394378
16.702019
15.914357
15.217189
14.434017
13.732666
12.953384
12.248423
11.472485
10.764435
9.9913424
9.2806806
8.5099767
7.7971402
7.0284053
6.3137984
5.5466423
4.8306424
4.064699
3.3476623
2.5825845
1.8648535
1.1003065
0.38220587
39.269654
37.645321
35.966326
35.024065
33.858576
33.175741
32.215476
31.59793
30.703192
30.089624
29.220616
28.596711
27.743242
27.107355
26.266196
25.619217
24.788699
24.131817
23.310704
22.644985
21.832242
21.158633
20.353347
19.672711
18.87405
18.187183
17.394377
16.702019
15.914357
15.217189
14.434017
13.732666
12.953384
12.248423
11.472485
10.764435
9.9913424
9.2806807
8.5099767
7.7971403
7.0284052
6.3137984
5.5466422
4.8306424
4.0646989
3.3476624
2.5825844
1.8648536
1.1003063
0.38220589
39.264906
37.64149
35.964649
35.023349
33.858309
33.175665
32.215439
31.597914
30.703189
30.089616
29.220618
28.596711
27.743242
27.107355
26.266196
25.619217
24.788699
24.131817
23.310703
22.644985
21.832242
21.158633
20.353347
19.672711
18.87405
18.187183
17.394377
16.702019
15.914357
15.217189
14.434017
13.732667
12.953384
12.248423
11.472485
10.764436
9.9913423
9.2806808
8.5099766
7.7971404
7.0284052
6.3137985
5.5466422
4.8306425
4.0646988
3.3476624
2.5825844
1.8648536
1.1003062
0.3822059
39.258732
37.638868
35.963175
35.022717
33.85807
33.175598
32.215406
31.597899
30.703186
30.089609
29.220619
28.596711
27.743243
27.107355
26.266196
25.619217
24.788699
24.131817
23.310703
22.644985
21.832241
21.158633
20.353347
19.672711
18.87405
18.187183
17.394377
16.702019
15.914357
15.21719
14.434017
13.732667
12.953384
12.248424
11.472485
10.764436
9.9913422
9.2806808
8.5099765
7.7971404
7.0284051
6.3137986
5.5466421
4.8306425
4.0646988
3.3476625
2.5825843
1.8648537
1.1003061
0.38220592
39.255287
37.635978
35.961832
35.022163
33.857861
33.175543
32.215378
31.597887
30.703184
30.089603
29.220619
28.596711
27.743243
27.107356
26.266195
25.619217
24.788699
24.131817
23.310703
22.644985
21.832241
21.158633
20.353347
19.672711
18.87405
18.187183
17.394377
16.702019
15.914357
15.21719
14.434017
13.732667
12.953384
12.248424
11.472485
10.764436
9.9913422
9.2806809
8.5099765
7.7971405
7.0284051
6.3137986
5.5466421
4.8306426
4.0646987
3.3476625
2.5825843
1.8648537
1.1003059
0.38220594
39.249793
37.633674
35.960655
35.021686
33.857684
33.1755
32.215354
31.597877
30.703182
30.089598
29.22062
28.59671
27.743244
27.107356
26.266195
25.619217
24.788698
24.131817
23.310703
22.644985
21.832241
21.158633
20.353347
19.672711
18.87405
18.187183
17.394377
16.702019
15.914357
15.21719
14.434017
13.732667
12.953384
12.248424
11.472485
10.764436
9.9913421
9.280681
8.5099764
7.7971405
7.028405
6.3137987
5.546642
4.8306426
4.0646987
3.3476626
2.5825842
1.8648537
1.1003058
0.38220596
39.246597
37.631562
35.959665
35.021296
33.85754
33.175468
32.215335
31.59787
30.703181
30.089593
29.22062
28.596709
27.743245
27.107356
26.266195
25.619217
24.788698
24.131817
23.310703
22.644985
21.832241
21.158633
20.353347
19.672711
18.87405
18.187184
17.394377
16.702019
15.914357
15.21719
14.434017
13.732667
12.953384
12.248424
11.472485
10.764436
9.991342
9.280681
8.5099764
7.7971406
7.028405
6.3137987
5.546642
4.8306427
4.0646987
3.3476626
2.5825842
1.8648537
1.1003057
0.38220598
39.242798
37.630084
35.958849
35.020978
33.857425
33.175448
32.215322
31.597865
30.70318
30.08959
29.220621
28.596707
27.743246
27.107357
26.266195
25.619217
24.788698
24.131817
23.310703
22.644985
21.832241
21.158634
20.353347
19.672712
18.874049
18.187184
17.394377
16.702019
15.914357
15.21719
14.434016
13.732667
12.953384
12.248424
11.472485
10.764436
9.991342
9.280681
8.5099763
7.7971406
7.0284049
6.3137987
5.546642
4.8306427
4.0646986
3.3476627
2.5825842
1.8648538
1.1003056
0.382206
39.240759
37.628554
35.958143
35.020723
33.857337
33.175437
32.215312
31.597862
30.70318
30.089587
29.220622
28.596706
27.743248
27.107357
26.266195
25.619218
24.788698
24.131817
23.310702
22.644985
21.832241
21.158634
20.353347
19.672712
18.874049
18.187184
17.394377
16.702019
15.914356
15.21719
14.434016
13.732667
12.953384
12.248424
11.472485
10.764436
9.991342
9.2806811
8.5099763
7.7971406
7.0284049
6.3137988
5.5466419
4.8306427
4.0646986
3.3476627
2.5825841
1.8648538
1.1003056
0.38220601
39.237935
37.627459
35.957595
35.020529
33.857273
33.175434
32.215307
31.59786
30.70318
30.089584
29.220623
28.596704
27.743249
27.107358
26.266195
25.619218
24.788698
24.131817
23.310702
22.644985
21.832241
21.158634
20.353347
19.672712
18.874049
18.187184
17.394377
16.702019
15.914356
15.21719
14.434016
13.732667
12.953384
12.248424
11.472485
10.764436
9.9913419
9.2806811
8.5099763
7.7971407
7.0284049
6.3137988
5.5466419
4.8306428
4.0646986
3.3476627
2.5825841
1.8648538
1.1003055
0.38220602
39.2361
37.626409
35.957155
35.020388
33.857231
33.175439
32.215306
31.597861
30.703181
30.089583
29.220625
28.596702
27.743249
27.107358
26.266196
25.619218
24.788698
24.131817
23.310702
22.644985
21.832241
21.158634
20.353347
19.672712
18.874049
18.187184
17.394377
16.702019
15.914356
15.21719
14.434016
13.732667
12.953384
12.248424
11.472485
10.764436
9.9913419
9.2806811
8.5099762
7.7971407
7.0284048
6.3137988
5.5466419
4.8306428
4.0646985
3.3476628
2.5825841
1.8648538
1.1003054
0.38220603
39.23401
37.625728
35.956846
35.020295
33.857207
33.175449
32.215307
31.597863
30.703183
30.089581
29.220626
28.5967
27.74325
27.107359
26.266196
25.619218
24.788698
24.131817
23.310702
22.644985
21.832241
21.158634
20.353346
19.672712
18.874049
18.187184
17.394377
16.70202
15.914356
15.21719
14.434016
13.732667
12.953384
12.248424
11.472485
10.764436
9.9913419
9.2806812
8.5099762
7.7971407
7.0284048
6.3137989
5.5466418
4.8306428
4.0646985
3.3476628
2.5825841
1.8648538
1.1003054
0.38220604
39.232527
37.625058
35.956633
35.020249
33.857203
33.175466
32.215312
31.597866
30.703185
30.089581
29.220627
28.596699
27.74325
27.107359
26.266196
25.619218
24.788698
24.131817
23.310702
22.644985
21.83224
21.158634
20.353346
19.672712
18.874049
18.187184
17.394377
16.70202
15.914356
15.21719
14.434016
13.732667
12.953384
12.248424
11.472484
10.764436
9.9913418
9.2806812
8.5099762
7.7971407
7.0284048
6.3137989
5.5466418
4.8306428
4.0646985
3.3476628
2.582584
1.8648538
1.1003054
0.38220604
39.231065
37.624773
35.956538
35.020243
33.857213
33.175487
32.21532
31.59787
30.703187
30.089581
29.220628
28.596699
27.74325
27.107359
26.266197
25.619218
24.788698
24.131818
23.310702
22.644985
21.83224
21.158634
20.353346
19.672712
18.874049
18.187184
17.394377
16.70202
15.914356
15.21719
14.434016
13.732667
12.953384
12.248424
11.472484
10.764436
9.9913418
9.2806812
8.5099762
7.7971408
7.0284048
6.3137989
5.5466418
4.8306428
4.0646985
3.3476628
2.582584
1.8648538
1.1003053
0.38220604
39.230057
37.624397
35.956503
35.020266
33.857237
33.175511
32.215329
31.597875
30.70319
30.089582
29.220629
28.596699
27.74325
27.107359
26.266197
25.619219
24.788697
24.131818
23.310702
22.644985
21.83224
21.158634
20.353346
19.672712
18.874049
18.187184
17.394376
16.70202
15.914356
15.21719
14.434016
13.732667
12.953384
12.248424
11.472484
10.764436
9.9913418
9.2806812
8.5099762
7.7971408
7.0284048
6.3137989
5.5466418
4.8306428
4.0646985
3.3476628
2.582584
1.8648538
1.1003053
0.38220603
39.229113
37.624402
35.956547
35.02031
33.857265
33.175535
32.215339
31.597881
30.703193
30.089582
29.22063
28.596699
27.74325
27.10736
26.266197
25.619219
24.788697
24.131818
23.310702
22.644985
21.83224
21.158634
20.353346
19.672712
18.874049
18.187184
17.394376
16.70202
15.914356
15.21719
14.434016
13.732667
12.953384
12.248424
11.472484
10.764436
9.9913418
9.2806812
8.5099761
7.7971408
7.0284048
6.3137989
5.5466418
4.8306428
4.0646985
3.3476628
2.582584
1.8648538
1.1003054
0.38220602
39.228612
37.624271
35.9566
35.020356
33.857294
33.175556
32.215348
31.597885
30.703195
30.089583
29.22063
28.596699
27.74325
27.10736
26.266197
25.619219
24.788697
24.131818
23.310702
22.644985
21.83224
21.158634
20.353346
19.672712
18.874049
18.187184
17.394376
16.70202
15.914356
15.21719
14.434016
13.732667
12.953384
12.248424
11.472484
10.764436
9.9913418
9.2806812
8.5099761
7.7971408
7.0284048
6.3137989
5.5466418
4.8306428
4.0646985
3.3476628
2.5825841
1.8648538
1.1003054
0.38220599
39.228108
37.624524
35.956674
35.020388
33.857309
33.175568
32.215353
31.597888
30.703196
30.089584
29.22063
28.596699
27.743251
27.10736
26.266197
25.619219
24.788697
24.131818
23.310702
22.644985
21.83224
21.158634
20.353346
19.672712
18.874049
18.187184
17.394376
16.70202
15.914356
15.21719
14.434016
13.732667
12.953384
12.248424
11.472484
10.764436
9.9913418
9.2806812
8.5099762
7.7971408
7.0284048
6.3137989
5.5466418
4.8306428
4.0646985
3.3476628
2.5825841
1.8648538
1.1003055
0.38220598
39.228036
37.624538
35.956685
35.020383
33.857308
33.175567
32.215353
31.597887
30.703195
30.089583
29.22063
28.596699
27.743251
27.10736
26.266197
25.619219
24.788697
24.131818
23.310702
22.644985
21.83224
21.158634
20.353346
19.672712
18.874049
18.187184
17.394376
16.70202
15.914356
15.21719
14.434016
13.732667
12.953384
12.248424
11.472484
10.764436
9.9913418
9.2806812
8.5099762
7.7971408
7.0284048
6.3137989
5.5466418
4.8306428
4.0646985
3.3476628
2.5825841
1.8648538
1.1003055
0.38220598
39.228022
37.624862
35.956675
35.020347
33.857287
33.175555
32.215348
31.597884
30.703194
30.089583
29.22063
28.596699
27.74325
27.10736
26.266197
25.619219
24.788697
24.131818
23.310702
22.644985
21.83224
21.158634
20.353346
19.672712
18.874049
18.187184
17.394376
16.70202
15.914356
15.21719
14.434016
13.732667
12.953384
12.248424
11.472484
10.764436
9.9913418
9.2806812
8.5099761
7.7971408
7.0284048
6.3137989
5.5466418
4.8306428
4.0646985
3.3476628
2.5825841
1.8648538
1.1003054
0.38220599
39.228316
37.62505
35.956644
35.020295
33.857258
33.175535
32.215339
31.59788
30.703192
30.089582
29.220629
28.596699
27.74325
27.10736
26.266197
25.619219
24.788697
24.131818
23.310702
22.644985
21.83224
21.158634
20.353346
19.672712
18.874049
18.187184
17.394376
16.70202
15.914356
15.21719
14.434016
13.732667
12.953384
12.248424
11.472484
10.764436
9.9913418
9.2806812
8.5099761
7.7971408
7.0284048
6.3137989
5.5466418
4.8306428
4.0646985
3.3476628
2.582584
1.8648538
1.1003054
0.38220602
39.228795
37.625638
35.956669
35.020252
33.857227
33.175511
32.21533
31.597874
30.703189
30.089581
29.220629
28.596699
27.74325
27.107359
26.266197
25.619219
24.788697
24.131818
23.310702
22.644985
21.83224
21.158634
20.353346
19.672712
18.874049
18.187184
17.394376
16.70202
15.914356
15.21719
14.434016
13.732667
12.953384
12.248424
11.472484
10.764436
9.9913418
9.2806812
8.5099762
7.7971408
7.0284048
6.3137989
5.5466418
4.8306428
4.0646985
3.3476628
2.582584
1.8648538
1.1003053
0.38220603
39.229517
37.626098
35.956739
35.020227
33.857205
33.175489
32.215321
31.597869
30.703187
30.089581
29.220628
28.596699
27.74325
27.107359
26.266197
25.619218
24.788698
24.131818
23.310702
22.644985
21.83224
21.158634
20.353346
19.672712
18.874049
18.187184
17.394377
16.70202
15.914356
15.21719
14.434016
13.732667
12.953384
12.248424
11.472484
10.764436
9.9913418
9.2806812
8.5099762
7.7971408
7.0284048
6.3137989
5.5466418
4.8306428
4.0646985
3.3476628
2.582584
1.8648538
1.1003053
0.38220604
39.230617
37.626949
35.956902
35.020236
33.857193
33.175469
32.215314
31.597864
30.703184
30.08958
29.220627
28.596699
27.74325
27.107359
26.266196
25.619218
24.788698
24.131817
23.310702
22.644985
21.83224
21.158634
20.353346
19.672712
18.874049
18.187184
17.394377
16.70202
15.914356
15.21719
14.434016
13.732667
12.953384
12.248424
11.472484
10.764436
9.9913418
9.2806812
8.5099762
7.7971407
7.0284048
6.3137989
5.5466418
4.8306428
4.0646985
3.3476628
2.582584
1.8648538
1.1003054
0.38220604
39.231789
37.627777
35.957158
35.020282
33.857199
33.175454
32.21531
31.597861
30.703182
30.089581
29.220626
28.5967
27.74325
27.107359
26.266196
25.619218
24.788698
24.131817
23.310702
22.644985
21.832241
21.158634
20.353346
19.672712
18.874049
18.187184
17.394377
16.70202
15.914356
15.21719
14.434016
13.732667
12.953384
12.248424
11.472485
10.764436
9.9913419
9.2806812
8.5099762
7.7971407
7.0284048
6.3137989
5.5466418
4.8306428
4.0646985
3.3476628
2.5825841
1.8648538
1.1003054
0.38220604
39.233361
37.628931
35.957521
35.020377
33.857221
33.175444
32.215309
31.597859
30.703181
30.089582
29.220624
28.596702
27.743249
27.107358
26.266196
25.619218
24.788698
24.131817
23.310702
22.644985
21.832241
21.158634
20.353347
19.672712
18.874049
18.187184
17.394377
16.702019
15.914356
15.21719
14.434016
13.732667
12.953384
12.248424
11.472485
10.764436
9.9913419
9.2806811
8.5099762
7.7971407
7.0284048
6.3137988
5.5466419
4.8306428
4.0646985
3.3476628
2.5825841
1.8648538
1.1003054
0.38220603
39.235148
37.630233
35.958008
35.020519
33.857266
33.175442
32.215311
31.597859
30.70318
30.089584
29.220623
28.596704
27.743249
27.107358
26.266195
25.619218
24.788698
24.131817
23.310702
22.644985
21.832241
21.158634
20.353347
19.672712
18.874049
18.187184
17.394377
16.702019
15.914356
15.21719
14.434016
13.732667
12.953384
12.248424
11.472485
10.764436
9.9913419
9.2806811
8.5099763
7.7971407
7.0284049
6.3137988
5.5466419
4.8306428
4.0646986
3.3476627
2.5825841
1.8648538
1.1003055
0.38220602
39.237068
37.631719
35.95861
35.020714
33.857329
33.175446
32.215317
31.59786
30.703179
30.089586
29.220622
28.596706
27.743248
27.107357
26.266195
25.619218
24.788698
24.131817
23.310702
22.644985
21.832241
21.158634
20.353347
19.672712
18.874049
18.187184
17.394377
16.702019
15.914356
15.21719
14.434016
13.732667
12.953384
12.248424
11.472485
10.764436
9.991342
9.2806811
8.5099763
7.7971406
7.0284049
6.3137988
5.5466419
4.8306427
4.0646986
3.3476627
2.5825841
1.8648538
1.1003056
0.38220601
39.239752
37.63351
35.959344
35.020966
33.857418
33.175459
32.215328
31.597863
30.703179
30.089589
29.220621
28.596707
27.743246
27.107357
26.266195
25.619217
24.788698
24.131817
23.310703
22.644985
21.832241
21.158634
20.353347
19.672712
18.874049
18.187184
17.394377
16.702019
15.914357
15.21719
14.434016
13.732667
12.953384
12.248424
11.472485
10.764436
9.991342
9.280681
8.5099763
7.7971406
7.0284049
6.3137987
5.546642
4.8306427
4.0646986
3.3476627
2.5825842
1.8648538
1.1003056
0.382206
39.242296
37.635496
35.960249
35.021291
33.857533
33.175481
32.215342
31.597868
30.70318
30.089592
29.22062
28.596709
27.743245
27.107356
26.266195
25.619217
24.788698
24.131817
23.310703
22.644985
21.832241
21.158633
20.353347
19.672711
18.87405
18.187184
17.394377
16.702019
15.914357
15.21719
14.434017
13.732667
12.953384
12.248424
11.472485
10.764436
9.991342
9.280681
8.5099764
7.7971406
7.028405
6.3137987
5.546642
4.8306427
4.0646987
3.3476626
2.5825842
1.8648537
1.1003057
0.38220598
39.246109
37.637902
35.961272
35.021679
33.857677
33.175514
32.215362
31.597876
30.703182
30.089597
29.22062
28.59671
27.743244
27.107356
26.266195
25.619217
24.788698
24.131817
23.310703
22.644985
21.832241
21.158633
20.353347
19.672711
18.87405
18.187183
17.394377
16.702019
15.914357
15.21719
14.434017
13.732667
12.953384
12.248424
11.472485
10.764436
9.9913421
9.280681
8.5099764
7.7971405
7.028405
6.3137987
5.546642
4.8306426
4.0646987
3.3476626
2.5825842
1.8648537
1.1003058
0.38220596
39.249341
37.640498
35.962523
35.022155
33.857852
33.175559
32.215386
31.597886
30.703183
30.089602
29.220619
28.596711
27.743243
27.107356
26.266195
25.619217
24.788699
24.131817
23.310703
22.644985
21.832241
21.158633
20.353347
19.672711
18.87405
18.187183
17.394377
16.702019
15.914357
15.21719
14.434017
13.732667
12.953384
12.248424
11.472485
10.764436
9.9913422
9.2806809
8.5099765
7.7971405
7.0284051
6.3137986
5.5466421
4.8306426
4.0646987
3.3476625
2.5825843
1.8648537
1.1003059
0.38220594
39.254391
37.643621
35.963906
35.022719
33.858061
33.175615
32.215416
31.597898
30.703186
30.089608
29.220618
28.596711
27.743242
27.107355
26.266196
25.619217
24.788699
24.131817
23.310703
22.644985
21.832241
21.158633
20.353347
19.672711
18.87405
18.187183
17.394377
16.702019
15.914357
15.21719
14.434017
13.732667
12.953384
12.248424
11.472485
10.764436
9.9913422
9.2806808
8.5099765
7.7971404
7.0284051
6.3137986
5.5466421
4.8306425
4.0646988
3.3476625
2.5825843
1.8648537
1.1003061
0.38220592
39.259014
37.647036
35.965521
35.023361
33.8583
33.175683
32.21545
31.597913
30.703189
30.089615
29.220617
28.596711
27.743242
27.107355
26.266196
25.619217
24.788699
24.131817
23.310703
22.644985
21.832242
21.158633
20.353347
19.672711
18.87405
18.187183
17.394377
16.702019
15.914357
15.217189
14.434017
13.732667
12.953384
12.248423
11.472485
10.764436
9.9913423
9.2806808
8.5099766
7.7971404
7.0284052
6.3137985
5.5466422
4.8306425
4.0646988
3.3476624
2.5825844
1.8648536
1.1003062
0.3822059
39.266472
37.651212
35.967221
35.024084
33.858568
33.175762
32.215488
31.59793
30.703192
30.089623
29.220616
28.596711
27.743242
27.107355
26.266196
25.619217
24.788699
24.131817
23.310704
22.644985
21.832242
21.158633
20.353347
19.672711
18.87405
18.187183
17.394377
16.702019
15.914357
15.217189
14.434017
13.732666
12.953384
12.248423
11.472485
10.764435
9.9913424
9.2806807
8.5099767
7.7971403
7.0284052
6.3137984
5.5466422
4.8306424
4.0646989
3.3476624
2.5825844
1.8648536
1.1003063
0.38220589
39.270864
37.655538
35.969157
35.024886
33.858864
33.17585
32.21553
31.597949
30.703196
30.089631
29.220614
28.596711
27.743242
27.107355
26.266196
25.619217
24.788699
24.131816
23.310704
22.644984
21.832242
21.158633
20.353348
19.672711
18.87405
18.187183
17.394378
16.702019
15.914357
15.217189
14.434017
13.732666
12.953384
12.248423
11.472485
10.764435
9.9913424
9.2806806
8.5099767
7.7971402
7.0284053
6.3137984
5.5466423
4.8306424
4.064699
3.3476623
2.5825845
1.8648535
1.1003065
0.38220587
39.27756
37.659298
35.971048
35.025764
33.859186
33.17595
32.215576
31.597971
30.7032
30.089638
29.220613
28.596711
27.743243
27.107355
26.266197
25.619217
24.7887
24.131816
23.310704
22.644984
21.832242
21.158633
20.353348
19.672711
18.87405
18.187183
17.394378
16.702019
15.914357
15.217189
14.434017
13.732666
12.953385
12.248423
11.472485