/*--------------------------------*- C++ -*----------------------------------*\
| =========                 |                                                 |
| \\      /  F ield         | OpenFOAM: The Open Source CFD Toolbox           |
|  \\    /   O peration     | Version:  2312                                  |
|   \\  /    A nd           | Website:  www.openfoam.com                      |
|    \\/     M anipulation  |                                                 |
\*---------------------------------------------------------------------------*/
FoamFile
{
    version     2.0;
    format      ascii;
    arch        "LSB;label=32;scalar=64";
    class       surfaceScalarField;
    location    "10";
    object      phi_0;
}
// * * * * * * * * * * * * * * * * * * * * * * * * * * * * * * * * * * * * * //

dimensions      [0 3 -1 0 0 0 0];

oriented        oriented;

internalField   nonuniform List<scalar> 
7870
(
1.8846006e-10
3.2731649e-09
1.8017485e-10
8.2851788e-12
1.3094579e-10
4.9229079e-11
1.4045448e-10
-9.5087138e-12
1.342713e-10
6.1831902e-12
1.3496925e-10
-6.9797234e-13
1.3317268e-10
1.7965819e-12
1.3352195e-10
-3.4929576e-13
1.3264418e-10
8.7777424e-13
1.3323972e-10
-5.9554989e-13
1.3256108e-10
6.7865085e-13
1.3317627e-10
-6.1519628e-13
1.3257142e-10
6.0484927e-13
1.3314262e-10
-5.7119599e-13
1.3259628e-10
5.4634734e-13
1.3311266e-10
-5.1637705e-13
1.3262212e-10
4.905418e-13
1.3308563e-10
-4.6349841e-13
1.3264649e-10
4.3914077e-13
1.3306158e-10
-4.1509186e-13
1.3266869e-10
3.9289313e-13
1.3304023e-10
-3.7154014e-13
1.3268859e-10
3.5164136e-13
1.3302133e-10
-3.3273969e-13
1.3270624e-10
3.1509106e-13
1.3300468e-10
-2.9844434e-13
1.3272176e-10
2.8291893e-13
1.329901e-10
-2.6834315e-13
1.3273532e-10
2.5477993e-13
1.3297741e-10
-2.4209356e-13
1.3274709e-10
2.303214e-13
1.3296644e-10
-2.1934942e-13
1.3275724e-10
2.0920233e-13
1.3295702e-10
-1.9978296e-13
1.3276591e-10
1.9110924e-13
1.3294901e-10
-1.8309869e-13
1.3277325e-10
1.7576533e-13
1.3294229e-10
-1.6903993e-13
1.3277935e-10
1.6293413e-13
1.3293674e-10
-1.5739005e-13
1.3278432e-10
1.5241874e-13
1.329323e-10
-1.4797308e-13
1.3278825e-10
1.4405205e-13
1.3292891e-10
-1.4066396e-13
1.3279121e-10
1.3770157e-13
1.3292644e-10
-1.3523342e-13
1.3279251e-10
1.3392651e-13
1.32922e-10
-1.2948521e-13
1.3278443e-10
1.3757204e-13
-1.2526002e-13
4.7134248e-10
6.2634475e-09
5.0169037e-10
-2.2062784e-11
3.9249104e-10
1.5842846e-10
4.0411043e-10
-2.1128178e-11
3.9029549e-10
1.9998155e-11
3.9078105e-10
-1.1835801e-12
3.8718178e-10
5.3958699e-12
3.8698123e-10
-1.4878888e-13
3.8557495e-10
2.2840681e-12
3.8625659e-10
-1.2772063e-12
3.8528362e-10
1.6516256e-12
3.8613667e-10
-1.4682509e-12
3.8526964e-10
1.4718951e-12
3.8608923e-10
-1.390781e-12
3.8529918e-10
1.3364054e-12
3.8604521e-10
-1.2623912e-12
3.8533451e-10
1.2012465e-12
3.8600504e-10
-1.1340146e-12
3.8536916e-10
1.0750222e-12
3.8596968e-10
-1.015607e-12
3.8540117e-10
9.614046e-13
3.8593853e-10
-9.0890164e-13
3.8542998e-10
8.6019547e-13
3.8591108e-10
-8.1384804e-13
3.8545554e-10
7.7063121e-13
3.8588697e-10
-7.298778e-13
3.8547802e-10
6.9186826e-13
3.8586589e-10
-6.5621716e-13
3.8549765e-10
6.2302152e-13
3.8584756e-10
-5.9200631e-13
3.8551468e-10
5.6319988e-13
3.8583171e-10
-5.3638064e-13
3.8552936e-10
5.1155196e-13
3.8581811e-10
-4.8852725e-13
3.8554192e-10
4.6730191e-13
3.8580653e-10
-4.4771789e-13
3.8555253e-10
4.2976909e-13
3.8579681e-10
-4.1332289e-13
3.8556137e-10
3.9837434e-13
3.857888e-10
-3.8481195e-13
3.8556858e-10
3.7263703e-13
3.8578236e-10
-3.6175478e-13
3.8557427e-10
3.5214277e-13
3.8577747e-10
-3.4386782e-13
3.8557867e-10
3.3651024e-13
3.8577406e-10
-3.3062761e-13
3.8558063e-10
3.2736009e-13
3.8576622e-10
-3.1508403e-13
3.8556069e-10
3.431108e-13
-3.057597e-13
6.9183588e-10
9.0332366e-09
7.9491553e-10
-1.2514252e-10
6.4693355e-10
3.0641049e-10
6.6038251e-10
-3.457722e-11
6.3940798e-10
4.097272e-11
6.3952623e-10
-1.3018953e-12
6.3472521e-10
1.0196903e-11
6.3364625e-10
9.3013373e-13
6.3217457e-10
3.7557591e-12
6.3258392e-10
-1.6865746e-12
6.3168608e-10
2.5494744e-12
6.3244629e-10
-2.2284596e-12
6.3163758e-10
2.2806185e-12
6.3240578e-10
-2.1589665e-12
6.3165754e-10
2.084654e-12
6.3236349e-10
-1.9683287e-12
6.316884e-10
1.8763382e-12
6.32324e-10
-1.7695989e-12
6.3172051e-10
1.6785167e-12
6.3228971e-10
-1.5848037e-12
6.3175072e-10
1.5003969e-12
6.3225984e-10
-1.4180214e-12
6.3177804e-10
1.3419916e-12
6.3223369e-10
-1.2694972e-12
6.318023e-10
1.2020146e-12
6.322108e-10
-1.1383816e-12
6.3182363e-10
1.079046e-12
6.3219084e-10
-1.023434e-12
6.3184223e-10
9.7162899e-13
6.3217349e-10
-9.2327154e-13
6.3185837e-10
8.7832376e-13
6.321585e-10
-8.3651465e-13
6.3187228e-10
7.9777358e-13
6.3214563e-10
-7.6187749e-13
6.3188418e-10
7.2875437e-13
6.3213468e-10
-6.9821621e-13
6.3189425e-10
6.701995e-13
6.3212547e-10
-6.445466e-13
6.3190264e-10
6.212052e-13
6.3211787e-10
-6.0004128e-13
6.3190949e-10
5.8102343e-13
6.3211176e-10
-5.6402931e-13
6.3191491e-10
5.4899723e-13
6.3210714e-10
-5.3610386e-13
6.3191921e-10
5.2443834e-13
6.3210407e-10
-5.1547915e-13
6.3192106e-10
5.1036224e-13
6.3209448e-10
-4.8849713e-13
6.3189095e-10
5.4663677e-13
-4.7593726e-13
9.8013141e-10
1.151473e-08
1.0721878e-09
-2.1719902e-10
8.924906e-10
4.8610777e-10
9.0952564e-10
-5.1612331e-11
8.8136845e-10
6.9129933e-11
8.8142869e-10
-1.3621885e-12
8.7556999e-10
1.6055619e-11
8.7372439e-10
2.7756882e-12
8.7225383e-10
5.2263322e-12
8.7240597e-10
-1.8387328e-12
8.7159767e-10
3.3577775e-12
8.7226814e-10
-2.8989299e-12
8.7152225e-10
3.0265221e-12
8.722379e-10
-2.8746001e-12
8.7153438e-10
2.7881777e-12
8.7219792e-10
-2.6318495e-12
8.7156113e-10
2.5131388e-12
8.7215934e-10
-2.3677974e-12
8.7159066e-10
2.2472006e-12
8.721263e-10
-2.1204415e-12
8.7161894e-10
2.0077582e-12
8.7209786e-10
-1.896938e-12
8.7164463e-10
1.795212e-12
8.7207312e-10
-1.6979892e-12
8.7166746e-10
1.6076731e-12
8.7205156e-10
-1.5224813e-12
8.7168752e-10
1.4430867e-12
8.7203278e-10
-1.3687008e-12
8.7170501e-10
1.2993987e-12
8.7201648e-10
-1.2347424e-12
8.7172019e-10
1.1746189e-12
8.7200239e-10
-1.1187228e-12
8.7173327e-10
1.0668985e-12
8.7199029e-10
-1.0189023e-12
8.7174446e-10
9.7458541e-13
8.7197999e-10
-9.3374368e-13
8.7175394e-10
8.9624888e-13
8.7197132e-10
-8.6192979e-13
8.7176185e-10
8.3068098e-13
8.7196416e-10
-8.0235459e-13
8.717683e-10
7.7688374e-13
8.7195839e-10
-7.5412003e-13
8.7177343e-10
7.339645e-13
8.7195405e-10
-7.167264e-13
8.7177762e-10
7.0086668e-13
8.7195133e-10
-6.8919192e-13
8.7177955e-10
6.8214944e-13
8.7194075e-10
-6.4970129e-13
8.7174165e-10
7.4573931e-13
-6.3538065e-13
1.1665936e-09
1.3809762e-08
1.3282079e-09
-3.7881341e-10
1.1311661e-09
6.8314966e-10
1.151871e-09
-7.2317337e-11
1.1162078e-09
1.0479316e-10
1.1164955e-09
-1.6499744e-12
1.1096892e-09
2.2862028e-11
1.1072148e-09
5.2499646e-12
1.1058136e-09
6.6275566e-12
1.1057245e-09
-1.7496315e-12
1.1050188e-09
4.0634529e-12
1.1056023e-09
-3.4824096e-12
1.1049236e-09
3.7052973e-12
1.1055853e-09
-3.5363702e-12
1.1049295e-09
3.4440479e-12
1.1055483e-09
-3.2506275e-12
1.1049524e-09
3.1090235e-12
1.1055109e-09
-2.9262707e-12
1.1049793e-09
2.7787728e-12
1.1054793e-09
-2.6204424e-12
1.1050055e-09
2.4815264e-12
1.1054525e-09
-2.3438629e-12
1.1050295e-09
2.2181876e-12
1.1054293e-09
-2.0977883e-12
1.1050508e-09
1.9861738e-12
1.1054091e-09
-1.8808465e-12
1.1050695e-09
1.7827433e-12
1.1053916e-09
-1.6908504e-12
1.1050858e-09
1.6052302e-12
1.1053764e-09
-1.5253821e-12
1.1051e-09
1.4511032e-12
1.1053633e-09
-1.3820751e-12
1.1051122e-09
1.3180425e-12
1.105352e-09
-1.2587615e-12
1.1051226e-09
1.2039939e-12
1.1053424e-09
-1.1535371e-12
1.1051315e-09
1.1071879e-12
1.1053343e-09
-1.0647761e-12
1.1051389e-09
1.0261346e-12
1.1053276e-09
-9.9111343e-13
1.1051449e-09
9.5960478e-13
1.1053222e-09
-9.3143805e-13
1.1051497e-09
9.0647924e-13
1.1053182e-09
-8.8518361e-13
1.1051538e-09
8.6527569e-13
1.1053158e-09
-8.5125761e-13
1.1051558e-09
8.4213493e-13
1.1053047e-09
-7.986054e-13
1.1051121e-09
9.3833874e-13
-7.8260472e-13
1.404508e-09
1.5866879e-08
1.5751034e-09
-5.4940888e-10
1.3619022e-09
8.9635088e-10
1.386866e-09
-9.7281181e-11
1.3438692e-09
1.4778999e-10
1.3447117e-09
-2.49262e-12
1.3370679e-09
3.0505888e-11
1.3341263e-09
8.1914973e-12
1.3328567e-09
7.8971784e-12
1.3325432e-09
-1.436115e-12
1.3319505e-09
4.6560899e-12
1.3324497e-09
-3.9815542e-12
1.3318416e-09
4.313439e-12
1.3324484e-09
-4.143203e-12
1.3318427e-09
4.049786e-12
1.3324148e-09
-3.8227217e-12
1.331862e-09
3.6617982e-12
1.3323789e-09
-3.443105e-12
1.3318863e-09
3.2713647e-12
1.332349e-09
-3.0831443e-12
1.3319104e-09
2.9201445e-12
1.3323239e-09
-2.7573875e-12
1.3319325e-09
2.6096113e-12
1.3323024e-09
-2.467694e-12
1.3319521e-09
2.3364e-12
1.3322837e-09
-2.2124381e-12
1.3319694e-09
2.0970431e-12
1.3322675e-09
-1.9889684e-12
1.3319845e-09
1.888262e-12
1.3322535e-09
-1.7943753e-12
1.3319976e-09
1.7070043e-12
1.3322414e-09
-1.6258375e-12
1.3320089e-09
1.5505078e-12
1.3322309e-09
-1.4807901e-12
1.3320186e-09
1.4163462e-12
1.332222e-09
-1.3569917e-12
1.3320268e-09
1.3024392e-12
1.3322145e-09
-1.2525335e-12
1.3320336e-09
1.2070386e-12
1.3322083e-09
-1.1658129e-12
1.3320392e-09
1.1287029e-12
1.3322033e-09
-1.0955195e-12
1.3320437e-09
1.066098e-12
1.3321996e-09
-1.0410432e-12
1.3320476e-09
1.0172655e-12
1.3321976e-09
-1.0012801e-12
1.3320498e-09
9.8988681e-13
1.3321864e-09
-9.3516829e-13
1.3320021e-09
1.1226388e-12
-9.1641196e-13
1.5934889e-09
1.7735015e-08
1.7996874e-09
-7.5560746e-10
1.5858451e-09
1.1101932e-09
1.6136382e-09
-1.250743e-10
1.5645632e-09
1.9686494e-10
1.5661582e-09
-4.0876401e-12
1.5577326e-09
3.893151e-11
1.5544772e-09
1.1446837e-11
1.5533868e-09
8.9876068e-12
1.5528663e-09
-9.156599e-13
1.5523941e-09
5.128293e-12
1.5528113e-09
-4.3987492e-12
1.5522764e-09
4.8483498e-12
1.5528275e-09
-4.6942838e-12
1.5522738e-09
4.6034689e-12
1.5527978e-09
-4.3466393e-12
1.5522898e-09
4.1697722e-12
1.5527636e-09
-3.9168647e-12
1.5523114e-09
3.7235819e-12
1.5527356e-09
-3.5073329e-12
1.5523332e-09
3.3224817e-12
1.5527123e-09
-3.1365001e-12
1.5523534e-09
2.9685474e-12
1.5526925e-09
-2.80685e-12
1.5523714e-09
2.6575549e-12
1.5526755e-09
-2.5165141e-12
1.5523872e-09
2.3852894e-12
1.5526606e-09
-2.2623982e-12
1.552401e-09
2.1478731e-12
1.5526478e-09
-2.041132e-12
1.552413e-09
1.9417616e-12
1.5526367e-09
-1.8494752e-12
1.5524234e-09
1.7637849e-12
1.5526271e-09
-1.6845011e-12
1.5524323e-09
1.6111779e-12
1.5526189e-09
-1.543663e-12
1.5524398e-09
1.4815788e-12
1.5526121e-09
-1.4247961e-12
1.5524461e-09
1.3730049e-12
1.5526064e-09
-1.3260812e-12
1.5524512e-09
1.2838222e-12
1.5526017e-09
-1.2460233e-12
1.5524554e-09
1.2124953e-12
1.5525983e-09
-1.1839876e-12
1.552459e-09
1.1565482e-12
1.5525967e-09
-1.1389663e-12
1.5524615e-09
1.125106e-12
1.5525857e-09
-1.059397e-12
1.5524112e-09
1.2971129e-12
-1.0361209e-12
1.7907993e-09
1.9405841e-08
2.0132521e-09
-9.7806034e-10
1.7999154e-09
1.3235299e-09
1.8275241e-09
-1.5268309e-10
1.7776425e-09
2.4674661e-10
1.7806611e-09
-7.1063504e-12
1.771659e-09
4.7933657e-11
1.7682784e-09
1.4827444e-11
1.7674037e-09
9.8622568e-12
1.7666969e-09
-2.0886706e-13
1.7663504e-09
5.4748045e-12
1.766688e-09
-4.7363006e-12
1.7662281e-09
5.3081627e-12
1.766723e-09
-5.1890904e-12
1.7662228e-09
5.1036961e-12
1.7666975e-09
-4.8213273e-12
1.7662355e-09
4.6317301e-12
1.7666652e-09
-4.3465623e-12
1.7662543e-09
4.1344635e-12
1.7666392e-09
-3.8921988e-12
1.7662739e-09
3.6877857e-12
1.7666179e-09
-3.480539e-12
1.7662921e-09
3.2943839e-12
1.7666e-09
-3.1146983e-12
1.7663084e-09
2.949118e-12
1.7665845e-09
-2.7925877e-12
1.7663227e-09
2.6470233e-12
1.766571e-09
-2.510704e-12
1.7663352e-09
2.3836496e-12
1.7665594e-09
-2.2652563e-12
1.7663461e-09
2.1549975e-12
1.7665493e-09
-2.0526261e-12
1.7663555e-09
1.957528e-12
1.7665406e-09
-1.869563e-12
1.7663636e-09
1.7881722e-12
1.7665332e-09
-1.7132475e-12
1.7663705e-09
1.6443164e-12
1.7665269e-09
-1.5812862e-12
1.7663762e-09
1.5237682e-12
1.7665218e-09
-1.4716645e-12
1.7663809e-09
1.42472e-12
1.7665176e-09
-1.3827175e-12
1.7663846e-09
1.3454505e-12
1.7665144e-09
-1.3138012e-12
1.766388e-09
1.2829345e-12
1.7665132e-09
-1.2641143e-12
1.7663907e-09
1.2476048e-12
1.7665026e-09
-1.1713422e-12
1.7663393e-09
1.4604718e-12
-1.1414452e-12
1.9491185e-09
2.0918347e-08
2.2065981e-09
-1.2355399e-09
2.0063027e-09
1.5238253e-09
2.0270269e-09
-1.734073e-10
1.9831577e-09
2.9061582e-10
1.9882086e-09
-1.2157353e-11
1.978887e-09
5.725527e-11
1.9755428e-09
1.8171625e-11
1.9749084e-09
1.0496656e-11
1.9740384e-09
6.6115191e-13
1.9738207e-09
5.6924664e-12
1.9740806e-09
-4.9961446e-12
1.9736969e-09
5.6918143e-12
1.9741352e-09
-5.6273383e-12
1.9736893e-09
5.5496094e-12
1.9741141e-09
-5.2461302e-12
1.9736989e-09
5.0469111e-12
1.974084e-09
-4.7316112e-12
1.973715e-09
4.5034396e-12
1.9740601e-09
-4.2372865e-12
1.9737323e-09
4.0156341e-12
1.9740409e-09
-3.789143e-12
1.9737485e-09
3.586786e-12
1.9740247e-09
-3.3909355e-12
1.973763e-09
3.2108036e-12
1.9740108e-09
-3.0403902e-12
1.9737759e-09
2.8819886e-12
1.9739988e-09
-2.7336399e-12
1.9737871e-09
2.5953552e-12
1.9739883e-09
-2.46652e-12
1.9737968e-09
2.3464928e-12
1.9739793e-09
-2.2350783e-12
1.9738053e-09
2.1315339e-12
1.9739715e-09
-2.0357798e-12
1.9738125e-09
1.9471417e-12
1.9739649e-09
-1.8655653e-12
1.9738187e-09
1.7904806e-12
1.9739592e-09
-1.7218393e-12
1.9738238e-09
1.6591719e-12
1.9739546e-09
-1.6024133e-12
1.9738281e-09
1.551254e-12
1.9739508e-09
-1.5054669e-12
1.9738314e-09
1.4648358e-12
1.973948e-09
-1.4303593e-12
1.9738346e-09
1.3963225e-12
1.9739471e-09
-1.3766036e-12
1.9738374e-09
1.3572921e-12
1.9739371e-09
-1.2710955e-12
1.973786e-09
1.611637e-12
-1.2323786e-12
2.1217993e-09
2.2258173e-08
2.3900612e-09
-1.503802e-09
2.200822e-09
1.7130646e-09
2.2149852e-09
-1.8757058e-10
2.1815166e-09
3.2408448e-10
2.1885526e-09
-1.9193399e-11
2.1794011e-09
6.6406693e-11
2.1762738e-09
2.1298894e-11
2.1759017e-09
1.0868841e-11
2.1748935e-09
1.6692749e-12
2.1748064e-09
5.779635e-12
2.17499e-09
-5.1798094e-12
2.1746829e-09
5.9989863e-12
2.1750646e-09
-6.0090111e-12
2.1746733e-09
5.9408578e-12
2.175048e-09
-5.6207773e-12
2.1746799e-09
5.4149707e-12
2.1750201e-09
-5.0717908e-12
2.1746933e-09
4.8302886e-12
2.1749984e-09
-4.542454e-12
2.1747082e-09
4.3058929e-12
2.1749813e-09
-4.0622126e-12
2.1747224e-09
3.8456592e-12
2.1749669e-09
-3.6354784e-12
2.1747352e-09
3.4425304e-12
2.1749546e-09
-3.2598419e-12
2.1747465e-09
3.0901057e-12
2.174944e-09
-2.9311255e-12
2.1747565e-09
2.7829101e-12
2.1749348e-09
-2.6448425e-12
2.1747651e-09
2.5161681e-12
2.1749268e-09
-2.3967531e-12
2.1747726e-09
2.285726e-12
2.1749199e-09
-2.1830768e-12
2.174779e-09
2.0880147e-12
2.174914e-09
-2.000547e-12
2.1747845e-09
1.9200054e-12
2.174909e-09
-1.8463927e-12
2.174789e-09
1.7791569e-12
2.1749049e-09
-1.7182719e-12
2.1747928e-09
1.663372e-12
2.1749015e-09
-1.6142234e-12
2.1747958e-09
1.5706077e-12
2.174899e-09
-1.5336193e-12
2.1747986e-09
1.4966892e-12
2.1748984e-09
-1.4763887e-12
2.1748016e-09
1.4541619e-12
2.1748893e-09
-1.358787e-12
2.1747512e-09
1.7497223e-12
-1.3091291e-12
2.2605787e-09
2.3459219e-08
2.5534484e-09
-1.7966718e-09
2.3845025e-09
1.8820105e-09
2.3950599e-09
-1.9812804e-10
2.3730105e-09
3.4613392e-10
2.3814619e-09
-2.7644903e-11
2.3732197e-09
7.464895e-11
2.3704923e-09
2.4026215e-11
2.3703841e-09
1.0977107e-11
2.3692653e-09
2.7880644e-12
2.3693086e-09
5.7362951e-12
2.3694171e-09
-5.2882901e-12
2.369186e-09
6.2300798e-12
2.3695114e-09
-6.3343788e-12
2.3691747e-09
6.277557e-12
2.3694993e-09
-5.945354e-12
2.3691783e-09
5.7359431e-12
2.3694737e-09
-5.3672024e-12
2.3691889e-09
5.115097e-12
2.3694543e-09
-4.8078291e-12
2.3692015e-09
4.5586788e-12
2.3694392e-09
-4.2998732e-12
2.3692137e-09
4.0711169e-12
2.3694267e-09
-3.8484345e-12
2.3692248e-09
3.6443938e-12
2.369416e-09
-3.4510283e-12
2.3692347e-09
3.27145e-12
2.3694068e-09
-3.1032266e-12
2.3692433e-09
2.9463724e-12
2.3693987e-09
-2.8002745e-12
2.3692508e-09
2.6640689e-12
2.3693918e-09
-2.5376907e-12
2.3692573e-09
2.4201415e-12
2.3693858e-09
-2.3114878e-12
2.3692629e-09
2.2108234e-12
2.3693806e-09
-2.118223e-12
2.3692677e-09
2.0329208e-12
2.3693763e-09
-1.9549751e-12
2.3692717e-09
1.8837524e-12
2.3693727e-09
-1.8192693e-12
2.369275e-09
1.7611041e-12
2.3693698e-09
-1.7090182e-12
2.3692776e-09
1.6627987e-12
2.3693676e-09
-1.6236129e-12
2.3692802e-09
1.5840823e-12
2.3693673e-09
-1.5634917e-12
2.3692831e-09
1.5382829e-12
2.3693589e-09
-1.4345848e-12
2.3692347e-09
1.8740171e-12
-1.3720727e-12
2.4209421e-09
2.4499902e-08
2.7090839e-09
-2.0848136e-09
2.5601722e-09
2.0309222e-09
2.5696676e-09
-2.0762353e-10
2.5579954e-09
3.5780617e-10
2.5670625e-09
-3.671208e-11
2.5604061e-09
8.1305386e-11
2.5582154e-09
2.6216923e-11
2.5583579e-09
1.0834572e-11
2.557156e-09
3.9899038e-12
2.557329e-09
5.5633349e-12
2.5573625e-09
-5.32175e-12
2.5572063e-09
6.3862118e-12
2.5574759e-09
-6.6039634e-12
2.5571933e-09
6.5602336e-12
2.5574682e-09
-6.2202707e-12
2.557194e-09
6.0101864e-12
2.557445e-09
-5.618231e-12
2.5572019e-09
5.3582139e-12
2.5574279e-09
-5.033773e-12
2.5572122e-09
4.7743215e-12
2.5574148e-09
-4.5024437e-12
2.5572224e-09
4.2634509e-12
2.5574041e-09
-4.0300761e-12
2.5572318e-09
3.8166436e-12
2.557395e-09
-3.6141793e-12
2.5572402e-09
3.4262334e-12
2.5573871e-09
-3.2501382e-12
2.5572476e-09
3.0859231e-12
2.5573803e-09
-2.9329836e-12
2.557254e-09
2.7903525e-12
2.5573743e-09
-2.6580381e-12
2.5572595e-09
2.5349196e-12
2.5573692e-09
-2.4211441e-12
2.5572643e-09
2.3156934e-12
2.5573648e-09
-2.2187133e-12
2.5572684e-09
2.1293423e-12
2.5573611e-09
-2.0476982e-12
2.5572718e-09
1.9730668e-12
2.5573581e-09
-1.905511e-12
2.5572746e-09
1.8445533e-12
2.5573555e-09
-1.789953e-12
2.5572768e-09
1.7415095e-12
2.5573537e-09
-1.7004389e-12
2.5572791e-09
1.6586131e-12
2.5573536e-09
-1.6379963e-12
2.5572821e-09
1.6097896e-12
2.5573462e-09
-1.4986918e-12
2.5572363e-09
1.9839719e-12
-1.4217163e-12
2.5492889e-09
2.5412238e-08
2.8494363e-09
-2.3849611e-09
2.7301613e-09
2.1501973e-09
2.7387408e-09
-2.1620311e-10
2.7364776e-09
3.6006945e-10
2.7457281e-09
-4.5962692e-11
2.7410543e-09
8.5979224e-11
2.739468e-09
2.7803174e-11
2.7398259e-09
1.047676e-11
2.7385681e-09
5.2476486e-12
2.7388693e-09
5.2621569e-12
2.7388268e-09
-5.2793147e-12
2.7387439e-09
6.4692048e-12
2.7389584e-09
-6.8185134e-12
2.7387289e-09
6.7897491e-12
2.7389549e-09
-6.4462335e-12
2.7387268e-09
6.2383245e-12
2.7389341e-09
-5.8255055e-12
2.7387321e-09
5.5602069e-12
2.7389191e-09
-5.2208436e-12
2.7387401e-09
4.9533313e-12
2.7389081e-09
-4.6704073e-12
2.7387484e-09
4.423106e-12
2.7388992e-09
-4.1808178e-12
2.7387562e-09
3.9596634e-12
2.7388916e-09
-3.7496514e-12
2.7387631e-09
3.5547876e-12
2.7388851e-09
-3.3721695e-12
2.7387692e-09
3.201852e-12
2.7388794e-09
-3.0432415e-12
2.7387745e-09
2.8952753e-12
2.7388745e-09
-2.7580373e-12
2.7387791e-09
2.6302905e-12
2.7388702e-09
-2.5122646e-12
2.7387831e-09
2.4028341e-12
2.7388666e-09
-2.3022178e-12
2.7387865e-09
2.2094627e-12
2.7388635e-09
-2.124747e-12
2.7387893e-09
2.0472794e-12
2.738861e-09
-1.9771708e-12
2.7387917e-09
1.9138889e-12
2.7388589e-09
-1.8571935e-12
2.7387935e-09
1.8069023e-12
2.7388573e-09
-1.7642561e-12
2.7387955e-09
1.7204498e-12
2.7388575e-09
-1.7000416e-12
2.7387984e-09
1.6688738e-12
2.7388511e-09
-1.5513442e-12
2.7387559e-09
2.0791847e-12
-1.4586644e-12
2.7111752e-09
2.6162688e-08
2.9887688e-09
-2.6625548e-09
2.8941766e-09
2.2447895e-09
2.9018573e-09
-2.2388385e-10
2.9086191e-09
3.5330765e-10
2.9179321e-09
-5.5275715e-11
2.9152567e-09
8.8654681e-11
2.9142691e-09
2.8790663e-11
2.9147897e-09
9.9562153e-12
2.9135025e-09
6.5348461e-12
2.9139311e-09
4.8335571e-12
2.9138109e-09
-5.1591584e-12
2.9137986e-09
6.4815599e-12
2.913959e-09
-6.9789085e-12
2.9137815e-09
6.9672624e-12
2.9139595e-09
-6.6241867e-12
2.9137766e-09
6.4212019e-12
2.913941e-09
-5.9898584e-12
2.9137793e-09
5.7218243e-12
2.9139283e-09
-5.3697641e-12
2.9137852e-09
5.0963693e-12
2.9139192e-09
-4.8043871e-12
2.9137917e-09
4.5506577e-12
2.913912e-09
-4.3011969e-12
2.9137977e-09
4.0739533e-12
2.913906e-09
-3.8579116e-12
2.9138032e-09
3.65755e-12
2.9139008e-09
-3.4697305e-12
2.9138081e-09
3.2945456e-12
2.9138963e-09
-3.1314125e-12
2.9138124e-09
2.9791825e-12
2.9138923e-09
-2.8380155e-12
2.9138161e-09
2.7065658e-12
2.9138889e-09
-2.585146e-12
2.9138192e-09
2.4725295e-12
2.913886e-09
-2.3690085e-12
2.913822e-09
2.2735432e-12
2.9138836e-09
-2.186373e-12
2.9138242e-09
2.1066332e-12
2.9138815e-09
-2.0344833e-12
2.9138261e-09
1.9693388e-12
2.9138799e-09
-1.9109619e-12
2.9138276e-09
1.859194e-12
2.9138786e-09
-1.8152768e-12
2.9138292e-09
1.7698111e-12
2.913879e-09
-1.7498173e-12
2.9138321e-09
1.7157773e-12
2.9138736e-09
-1.5928078e-12
2.9137934e-09
2.1593879e-12
-1.4835916e-12
2.8354326e-09
2.678888e-08
3.1163898e-09
-2.943512e-09
3.0537365e-09
2.3074429e-09
3.0589532e-09
-2.2910065e-10
3.0745638e-09
3.3769703e-10
3.0839424e-09
-6.4654323e-11
3.0830562e-09
8.9540845e-11
3.0826361e-09
2.9210786e-11
3.0832494e-09
9.3428863e-12
3.0819598e-09
7.8244353e-12
3.0825155e-09
4.2778772e-12
3.0823153e-09
-4.9589993e-12
3.0823706e-09
6.4263588e-12
3.0824778e-09
-7.0861035e-12
3.0823509e-09
7.0941714e-12
3.082482e-09
-6.7552723e-12
3.0823433e-09
6.559837e-12
3.0824658e-09
-6.1122922e-12
3.0823436e-09
5.8439608e-12
3.0824553e-09
-5.4813971e-12
3.0823474e-09
5.2042228e-12
3.0824482e-09
-4.9051257e-12
3.082352e-09
4.6467936e-12
3.0824427e-09
-4.391858e-12
3.0823565e-09
4.1601152e-12
3.0824381e-09
-3.9395244e-12
3.0823606e-09
3.7350514e-12
3.0824342e-09
-3.543321e-12
3.0823643e-09
3.364476e-12
3.0824308e-09
-3.1979431e-12
3.0823675e-09
3.042498e-12
3.0824279e-09
-2.8983752e-12
3.0823703e-09
2.7641292e-12
3.0824253e-09
-2.6401541e-12
3.0823727e-09
2.5251298e-12
3.0824231e-09
-2.4194205e-12
3.0823748e-09
2.3219061e-12
3.0824213e-09
-2.2328859e-12
3.0823765e-09
2.1514272e-12
3.0824197e-09
-2.0777376e-12
3.0823779e-09
2.0111834e-12
3.0824185e-09
-1.9515312e-12
3.082379e-09
1.8986502e-12
3.0824175e-09
-1.8537611e-12
3.0823803e-09
1.8069604e-12
3.0824181e-09
-1.7875574e-12
3.0823831e-09
1.7507853e-12
3.0824136e-09
-1.6233764e-12
3.0823486e-09
2.2244368e-12
-1.4972193e-12
2.9951261e-09
2.7255379e-08
3.2465819e-09
-3.1949679e-09
3.2083058e-09
2.345719e-09
3.2102847e-09
-2.3107966e-10
3.2344046e-09
3.1357725e-10
3.2438765e-09
-7.4126344e-11
3.2444839e-09
8.8933479e-11
3.2445787e-09
2.9115975e-11
3.245205e-09
8.7165573e-12
3.2439427e-09
9.0867025e-12
3.2446223e-09
3.5983113e-12
3.2443405e-09
-4.6771778e-12
3.2444598e-09
6.3070729e-12
3.2445148e-09
-7.141117e-12
3.2444369e-09
7.1720476e-12
3.2445225e-09
-6.8407945e-12
3.2444269e-09
6.6553836e-12
3.2445086e-09
-6.193949e-12
3.2444249e-09
5.9276301e-12
3.2445003e-09
-5.5567218e-12
3.2444267e-09
5.2777856e-12
3.244495e-09
-4.9734683e-12
3.2444295e-09
4.7122982e-12
3.2444912e-09
-4.4535384e-12
3.2444325e-09
4.2188402e-12
3.2444881e-09
-3.99514e-12
3.2444352e-09
3.7879048e-12
3.2444854e-09
-3.5935194e-12
3.2444377e-09
3.4121914e-12
3.2444831e-09
-3.2433523e-12
3.2444399e-09
3.0857156e-12
3.2444811e-09
-2.9395857e-12
3.2444418e-09
2.8034286e-12
3.2444794e-09
-2.6777163e-12
3.2444435e-09
2.5610442e-12
3.2444779e-09
-2.4538457e-12
3.2444449e-09
2.3549278e-12
3.2444766e-09
-2.2646476e-12
3.2444461e-09
2.1820104e-12
3.2444756e-09
-2.1072706e-12
3.244447e-09
2.0397491e-12
3.2444747e-09
-1.9792186e-12
3.2444478e-09
1.9255796e-12
3.244474e-09
-1.8800113e-12
3.2444488e-09
1.8322005e-12
3.2444748e-09
-1.8135363e-12
3.2444513e-09
1.7742205e-12
3.2444713e-09
-1.6433684e-12
3.2444215e-09
2.2742981e-12
-1.5002961e-12
3.1173054e-09
2.7599699e-08
3.3652857e-09
-3.4429483e-09
3.3585115e-09
2.3524933e-09
3.3568835e-09
-2.2945172e-10
3.3883183e-09
2.8214247e-10
3.3977361e-09
-8.3544212e-11
3.3995413e-09
8.7128228e-11
3.4000838e-09
2.8573501e-11
3.4006564e-09
8.1439124e-12
3.3994602e-09
1.02829e-11
3.4002496e-09
2.808974e-12
3.3998867e-09
-4.3143103e-12
3.4000663e-09
6.1275095e-12
3.4000702e-09
-7.1449945e-12
3.4000396e-09
7.2026071e-12
3.400081e-09
-6.8821787e-12
3.4000273e-09
6.7091069e-12
3.4000694e-09
-6.2360837e-12
3.4000231e-09
5.9739451e-12
3.4000632e-09
-5.5968156e-12
3.400023e-09
5.3180416e-12
3.4000599e-09
-5.0103489e-12
3.4000241e-09
4.7480396e-12
3.4000576e-09
-4.4870574e-12
3.4000256e-09
4.2508973e-12
3.4000559e-09
-4.0254843e-12
3.400027e-09
3.8167957e-12
3.4000545e-09
-3.6209744e-12
3.4000284e-09
3.4383067e-12
3.4000532e-09
-3.2682237e-12
3.4000295e-09
3.1093902e-12
3.4000521e-09
-2.9621753e-12
3.4000306e-09
2.8249681e-12
3.4000512e-09
-2.6983138e-12
3.4000315e-09
2.5807332e-12
3.4000504e-09
-2.4727251e-12
3.4000323e-09
2.3730319e-12
3.4000497e-09
-2.2820651e-12
3.4000329e-09
2.1987753e-12
3.4000491e-09
-2.1234613e-12
3.4000335e-09
2.055403e-12
3.4000486e-09
-1.9943808e-12
3.4000339e-09
1.9403285e-12
3.4000482e-09
-1.8943667e-12
3.4000346e-09
1.8458688e-12
3.4000491e-09
-1.8280639e-12
3.4000369e-09
1.7864375e-12
3.4000466e-09
-1.6531242e-12
3.4000119e-09
2.3090401e-12
-1.4935815e-12
3.2796796e-09
2.7781644e-08
3.4867602e-09
-3.6500289e-09
3.5039015e-09
2.3353521e-09
3.5001352e-09
-2.2568554e-10
3.5364276e-09
2.4585015e-10
3.5454795e-09
-9.2596232e-11
3.5482271e-09
8.4380734e-11
3.5491278e-09
2.7672693e-11
3.5496085e-09
7.6632923e-12
3.5485265e-09
1.1364849e-11
3.5493935e-09
1.9419553e-12
3.5489543e-09
-3.8750899e-12
3.5491902e-09
5.8916503e-12
3.549144e-09
-7.0987763e-12
3.5491589e-09
7.1876949e-12
3.5491577e-09
-6.8809328e-12
3.5491444e-09
6.7223691e-12
3.5491484e-09
-6.2400375e-12
3.5491382e-09
5.9841048e-12
3.5491442e-09
-5.6028361e-12
3.5491362e-09
5.3260536e-12
3.5491426e-09
-5.0167768e-12
3.5491357e-09
4.7549599e-12
3.549142e-09
-4.4933049e-12
3.5491357e-09
4.2571244e-12
3.5491416e-09
-4.0313493e-12
3.5491359e-09
3.8224734e-12
3.5491413e-09
-3.6263955e-12
3.5491362e-09
3.4434957e-12
3.5491411e-09
-3.273197e-12
3.5491364e-09
3.114131e-12
3.5491409e-09
-2.9667238e-12
3.5491366e-09
2.8293012e-12
3.5491408e-09
-2.7024748e-12
3.5491368e-09
2.5847026e-12
3.5491406e-09
-2.476543e-12
3.549137e-09
2.3766833e-12
3.5491405e-09
-2.2855856e-12
3.5491371e-09
2.2021528e-12
3.5491404e-09
-2.1267254e-12
3.5491372e-09
2.0585475e-12
3.5491402e-09
-1.9974085e-12
3.5491373e-09
1.9432767e-12
3.5491401e-09
-1.897199e-12
3.5491377e-09
1.8483328e-12
3.5491411e-09
-1.8314817e-12
3.5491397e-09
1.7878182e-12
3.5491396e-09
-1.6530044e-12
3.5491198e-09
2.3288229e-12
-1.4778328e-12
3.403989e-09
2.783928e-08
3.5949231e-09
-3.840963e-09
3.644138e-09
2.2861371e-09
3.6401958e-09
-2.2174339e-10
3.67874e-09
2.0730595e-10
3.6870859e-09
-1.0094219e-10
3.6905348e-09
8.0931845e-11
3.6916903e-09
2.6517153e-11
3.6920703e-09
7.2833838e-12
3.6911491e-09
1.2285985e-11
3.6920484e-09
1.0426999e-12
3.6915426e-09
-3.369339e-12
3.6918314e-09
5.6028877e-12
3.6917362e-09
-7.0035631e-12
3.6917947e-09
7.1292075e-12
3.6917524e-09
-6.8386433e-12
3.6917782e-09
6.6966037e-12
3.6917454e-09
-6.2072265e-12
3.6917701e-09
5.95938e-12
3.6917433e-09
-5.5760111e-12
3.6917664e-09
5.3029521e-12
3.6917435e-09
-4.993828e-12
3.6917643e-09
4.7340646e-12
3.6917443e-09
-4.4732338e-12
3.691763e-09
4.2384193e-12
3.6917452e-09
-4.013585e-12
3.6917619e-09
3.8057428e-12
3.6917461e-09
-3.6105462e-12
3.6917611e-09
3.4284832e-12
3.6917469e-09
-3.258961e-12
3.6917604e-09
3.1005938e-12
3.6917475e-09
-2.9538559e-12
3.6917598e-09
2.817024e-12
3.6917481e-09
-2.6907688e-12
3.6917593e-09
2.5734971e-12
3.6917486e-09
-2.4658211e-12
3.6917589e-09
2.3663831e-12
3.691749e-09
-2.2756901e-12
3.6917585e-09
2.1926065e-12
3.6917493e-09
-2.1175106e-12
3.6917583e-09
2.0496157e-12
3.6917496e-09
-1.9887222e-12
3.691758e-09
1.9348323e-12
3.6917497e-09
-1.8889079e-12
3.6917581e-09
1.839986e-12
3.6917507e-09
-1.8241586e-12
3.6917598e-09
1.7787675e-12
3.6917502e-09
-1.6433865e-12
3.6917451e-09
2.3338894e-12
-1.4537943e-12
3.554467e-09
2.7746439e-08
3.7077058e-09
-3.9942019e-09
3.7792327e-09
2.2146103e-09
3.7764581e-09
-2.1896886e-10
3.8150439e-09
1.6872019e-10
3.8224885e-09
-1.0838683e-10
3.826441e-09
7.6979345e-11
3.8277626e-09
2.5195487e-11
3.8280517e-09
6.9942409e-12
3.8273243e-09
1.3013372e-11
3.828208e-09
1.5900388e-13
3.8276501e-09
-2.8113696e-12
3.8279897e-09
5.2632701e-12
3.8278467e-09
-6.8605826e-12
3.8279469e-09
7.0290133e-12
3.8278653e-09
-6.7569867e-12
3.8279286e-09
6.6332872e-12
3.8278606e-09
-6.1391387e-12
3.8279188e-09
5.901098e-12
3.8278605e-09
-5.5176305e-12
3.8279135e-09
5.2499257e-12
3.8278623e-09
-4.9426362e-12
3.8279099e-09
4.6864153e-12
3.8278646e-09
-4.4278508e-12
3.8279072e-09
4.1957322e-12
3.8278667e-09
-3.9730922e-12
3.827905e-09
3.7674572e-12
3.8278687e-09
-3.574236e-12
3.8279032e-09
3.3940385e-12
3.8278704e-09
-3.226247e-12
3.8279016e-09
3.0694749e-12
3.8278719e-09
-2.9242347e-12
3.8279002e-09
2.7887695e-12
3.8278732e-09
-2.6638002e-12
3.827899e-09
2.5476951e-12
3.8278743e-09
-2.4411134e-12
3.827898e-09
2.3426627e-12
3.8278752e-09
-2.2528898e-12
3.8278972e-09
2.1706288e-12
3.827876e-09
-2.0962918e-12
3.8278966e-09
2.0290673e-12
3.8278766e-09
-1.9687677e-12
3.827896e-09
1.9154283e-12
3.827877e-09
-1.8699172e-12
3.8278958e-09
1.8212444e-12
3.8278781e-09
-1.806488e-12
3.8278971e-09
1.7597094e-12
3.8278784e-09
-1.6246633e-12
3.8278877e-09
2.3245569e-12
-1.4221884e-12
3.6862684e-09
2.7521795e-08
3.8101218e-09
-4.1180554e-09
3.9090699e-09
2.1156622e-09
3.9079101e-09
-2.1780917e-10
3.9452281e-09
1.3140227e-10
3.9516409e-09
-1.1479967e-10
3.9559284e-09
7.2691853e-11
3.9573464e-09
2.3777443e-11
3.957561e-09
6.7795939e-12
3.9570438e-09
1.3530544e-11
3.9578686e-09
-6.6575807e-13
3.9572752e-09
-2.2179609e-12
3.9576649e-09
4.8735868e-12
3.9574755e-09
-6.6711686e-12
3.9576156e-09
6.8889589e-12
3.9574963e-09
-6.637708e-12
3.9575957e-09
6.5339326e-12
3.9574939e-09
-6.0373244e-12
3.9575843e-09
5.8106349e-12
3.9574957e-09
-5.4290383e-12
3.9575775e-09
5.1682124e-12
3.9574992e-09
-4.8643859e-12
3.9575725e-09
4.6131213e-12
3.9575029e-09
-4.3582103e-12
3.9575685e-09
4.1300579e-12
3.9575062e-09
-3.9108149e-12
3.9575652e-09
3.7085114e-12
3.9575093e-09
-3.5183147e-12
3.9575623e-09
3.3409689e-12
3.9575119e-09
-3.1758225e-12
3.9575599e-09
3.021505e-12
3.9575142e-09
-2.8785566e-12
3.9575578e-09
2.7452021e-12
3.9575162e-09
-2.6222033e-12
3.957556e-09
2.5079036e-12
3.9575178e-09
-2.4030012e-12
3.9575544e-09
2.3060802e-12
3.9575193e-09
-2.2177207e-12
3.9575532e-09