/*--------------------------------*- C++ -*----------------------------------*\
| =========                 |                                                 |
| \\      /  F ield         | OpenFOAM: The Open Source CFD Toolbox           |
|  \\    /   O peration     | Version:  2312                                  |
|   \\  /    A nd           | Website:  www.openfoam.com                      |
|    \\/     M anipulation  |                                                 |
\*---------------------------------------------------------------------------*/
FoamFile
{
    version     2.0;
    format      ascii;
    arch        "LSB;label=32;scalar=64";
    class       volVectorField;
    location    "10";
    object      U;
}
// * * * * * * * * * * * * * * * * * * * * * * * * * * * * * * * * * * * * * //

dimensions      [0 1 -1 0 0 0 0];

internalField   nonuniform List<vector> 
4000
(
(0.0025193921 0.00051790812 0)
(0.0063791391 -1.8031941e-05 0)
(0.0031638333 -5.2750853e-07 0)
(0.0038568986 -7.2880714e-07 0)
(0.0036070159 9.7337621e-08 0)
(0.0035834564 -1.9735863e-07 0)
(0.0035910688 9.9571204e-08 0)
(0.0035353045 -1.6436998e-07 0)
(0.0035642953 1.1738397e-07 0)
(0.0035308086 -1.2326163e-07 0)
(0.0035559429 1.0934659e-07 0)
(0.0035323853 -1.0401475e-07 0)
(0.0035530008 9.7232772e-08 0)
(0.0035339077 -9.174777e-08 0)
(0.0035515034 8.6533495e-08 0)
(0.0035349963 -8.1861549e-08 0)
(0.0035504465 7.737333e-08 0)
(0.0035358864 -7.3248531e-08 0)
(0.0035495728 6.9292773e-08 0)
(0.0035366775 -6.5589446e-08 0)
(0.0035488048 6.2070127e-08 0)
(0.0035373943 -5.8750926e-08 0)
(0.0035481148 5.5617336e-08 0)
(0.0035380459 -5.2659131e-08 0)
(0.0035474905 4.9880039e-08 0)
(0.0035386379 -4.7261183e-08 0)
(0.0035469249 4.4811183e-08 0)
(0.0035391748 -4.2508938e-08 0)
(0.0035464125 4.0363473e-08 0)
(0.0035396614 -3.8353849e-08 0)
(0.0035459483 3.6488245e-08 0)
(0.0035401026 -3.4746929e-08 0)
(0.0035455271 3.3137034e-08 0)
(0.0035405035 -3.1640595e-08 0)
(0.0035451436 3.0263777e-08 0)
(0.0035408693 -2.8990689e-08 0)
(0.0035447927 2.7826632e-08 0)
(0.0035412053 -2.6757933e-08 0)
(0.0035444693 2.5789111e-08 0)
(0.0035415163 -2.4908766e-08 0)
(0.0035441687 2.4120587e-08 0)
(0.0035418067 -2.3415732e-08 0)
(0.0035438866 2.2796845e-08 0)
(0.0035420813 -2.2256528e-08 0)
(0.0035436199 2.1804443e-08 0)
(0.0035423448 -2.1410356e-08 0)
(0.0035433593 2.1137593e-08 0)
(0.0035425668 -2.0938735e-08 0)
(0.0035429829 2.044102e-08 0)
(0.0035424583 -2.256224e-08 0)
(0.0067209769 0.0015116051 0)
(0.016786841 1.1567382e-06 0)
(0.0099738297 3.4105082e-05 0)
(0.011032939 -5.1682823e-06 0)
(0.010479394 4.0236144e-06 0)
(0.01038027 -3.3281574e-07 0)
(0.01042559 1.1310789e-06 0)
(0.010259771 -1.2872844e-07 0)
(0.010346782 5.1740862e-07 0)
(0.010248373 -3.2126772e-07 0)
(0.010322897 3.8627607e-07 0)
(0.010253196 -3.4567382e-07 0)
(0.010314718 3.426626e-07 0)
(0.01025766 -3.2308313e-07 0)
(0.010310463 3.0952115e-07 0)
(0.010260879 -2.922873e-07 0)
(0.010307348 2.7782829e-07 0)
(0.010263555 -2.6238332e-07 0)
(0.010304721 2.4868551e-07 0)
(0.010265953 -2.3504907e-07 0)
(0.010302398 2.2254638e-07 0)
(0.01026813 -2.1048142e-07 0)
(0.010300308 1.9926015e-07 0)
(0.010270107 -1.8858817e-07 0)
(0.01029842 1.7862065e-07 0)
(0.010271899 -1.692152e-07 0)
(0.010296712 1.6043279e-07 0)
(0.010273522 -1.5218747e-07 0)
(0.010295167 1.4450426e-07 0)
(0.010274991 -1.3731926e-07 0)
(0.010293768 1.3064362e-07 0)
(0.010276322 -1.2442393e-07 0)
(0.010292499 1.1866598e-07 0)
(0.010277532 -1.1332339e-07 0)
(0.010291343 1.083999e-07 0)
(0.010278638 -1.0385526e-07 0)
(0.010290284 9.9692368e-08 0)
(0.010279654 -9.5876906e-08 0)
(0.010289305 9.2411437e-08 0)
(0.010280597 -8.9266964e-08 0)
(0.010288394 8.6446673e-08 0)
(0.01028148 -8.3926625e-08 0)
(0.010287536 8.1703703e-08 0)
(0.010282317 -7.9788737e-08 0)
(0.010286722 7.8105045e-08 0)
(0.010283123 -7.6727613e-08 0)
(0.010285935 7.6012241e-08 0)
(0.010283853 -7.3345508e-08 0)
(0.010284911 7.8847557e-08 0)
(0.010283732 -7.1275075e-08 0)
(0.013141296 0.0028202165 0)
(0.025872815 -1.8671477e-05 0)
(0.016516393 7.5012688e-05 0)
(0.018023291 -9.2110567e-06 0)
(0.017155556 9.5933448e-06 0)
(0.016990077 -4.1993307e-07 0)
(0.017082088 2.5159295e-06 0)
(0.016805514 7.0681511e-08 0)
(0.016956377 9.9921091e-07 0)
(0.01679082 -5.0805128e-07 0)
(0.016917859 7.0001525e-07 0)
(0.016799742 -6.1569907e-07 0)
(0.016904654 6.2250051e-07 0)
(0.01680737 -5.8781764e-07 0)
(0.01689762 5.6584474e-07 0)
(0.016812843 -5.3415801e-07 0)
(0.016892354 5.0865691e-07 0)
(0.016817423 -4.7998067e-07 0)
(0.016887866 4.5521072e-07 0)
(0.016821543 -4.3002844e-07 0)
(0.01688388 4.0721585e-07 0)
(0.016825286 -3.8503098e-07 0)
(0.016880292 3.6449749e-07 0)
(0.016828683 -3.4492217e-07 0)
(0.016877052 3.2667154e-07 0)
(0.016831759 -3.0944439e-07 0)
(0.016874125 2.9336617e-07 0)
(0.01683454 -2.7827732e-07 0)
(0.01687148 2.6421584e-07 0)
(0.016837055 -2.5107413e-07 0)
(0.016869087 2.3885945e-07 0)
(0.016839333 -2.2748598e-07 0)
(0.016866917 2.1695118e-07 0)
(0.016841404 -2.0718167e-07 0)
(0.016864939 1.9817271e-07 0)
(0.016843297 -1.8986085e-07 0)
(0.016863125 1.8224156e-07 0)
(0.016845038 -1.7526078e-07 0)
(0.01686145 1.6891494e-07 0)
(0.016846654 -1.6315802e-07 0)
(0.016859888 1.5798975e-07 0)
(0.016848168 -1.5337005e-07 0)
(0.016858416 1.4928841e-07 0)
(0.016849604 -1.4578035e-07 0)
(0.016857016 1.4263828e-07 0)
(0.016850991 -1.4016654e-07 0)
(0.016855667 1.3879849e-07 0)
(0.016852277 -1.3322046e-07 0)
(0.016853993 1.4693331e-07 0)
(0.016852264 -1.2957198e-07 0)
(0.015489925 0.0031986874 0)
(0.034181202 -9.1181809e-05 0)
(0.022854753 0.00013047298 0)
(0.024833604 -1.3921099e-05 0)
(0.023636584 1.7674896e-05 0)
(0.023413495 -4.5306058e-07 0)
(0.023560039 4.3056511e-06 0)
(0.023172565 5.500553e-07 0)
(0.023393369 1.5017159e-06 0)
(0.023158118 -6.1004583e-07 0)
(0.023341024 9.9266012e-07 0)
(0.023171899 -8.6076841e-07 0)
(0.02332297 8.8794826e-07 0)
(0.02318292 -8.4079814e-07 0)
(0.023313106 8.1320446e-07 0)
(0.023190792 -7.6749258e-07 0)
(0.023305575 7.3217422e-07 0)
(0.023197412 -6.9027959e-07 0)
(0.0232991 6.5505604e-07 0)
(0.02320338 -6.1847758e-07 0)
(0.023293332 5.8574322e-07 0)
(0.023208801 -5.5367174e-07 0)
(0.023288141 5.2412803e-07 0)
(0.023213716 -4.9590715e-07 0)
(0.023283458 4.6963556e-07 0)
(0.02321816 -4.4483982e-07 0)
(0.023279231 4.2170067e-07 0)
(0.023222174 -4.0000323e-07 0)
(0.023275416 3.7977318e-07 0)
(0.023225801 -3.6088543e-07 0)
(0.023271967 3.433162e-07 0)
(0.023229085 -3.2697328e-07 0)
(0.023268839 3.1182122e-07 0)
(0.023232069 -2.9778302e-07 0)
(0.023265989 2.8482433e-07 0)
(0.023234795 -2.7287875e-07 0)
(0.023263376 2.6191656e-07 0)
(0.023237305 -2.5188106e-07 0)
(0.023260961 2.4274781e-07 0)
(0.023239634 -2.3446784e-07 0)
(0.023258709 2.2702597e-07 0)
(0.023241817 -2.203758e-07 0)
(0.023256587 2.1449078e-07 0)
(0.023243888 -2.0944967e-07 0)
(0.023254567 2.0485398e-07 0)
(0.023245889 -2.0138491e-07 0)
(0.023252623 1.9936759e-07 0)
(0.023247773 -1.9035448e-07 0)
(0.023250298 2.1550335e-07 0)
(0.023247996 -1.8580692e-07 0)
(0.021338933 0.0043167799 0)
(0.042090017 -8.9452097e-05 0)
(0.028904969 0.00019343797 0)
(0.031469059 -2.1456067e-05 0)
(0.029922343 2.8257066e-05 0)
(0.029652309 -4.9170543e-07 0)
(0.029857915 6.4347686e-06 0)
(0.02936102 1.2760631e-06 0)
(0.029657631 1.9864994e-06 0)
(0.029350437 -6.2177459e-07 0)
(0.029592324 1.24768e-06 0)
(0.029369756 -1.0710985e-06 0)
(0.029569586 1.1270638e-06 0)
(0.029384382 -1.0717296e-06 0)
(0.029556838 1.0412113e-06 0)
(0.029394797 -9.8260431e-07 0)
(0.029546926 9.3904544e-07 0)
(0.029403589 -8.844759e-07 0)
(0.029538343 8.3985397e-07 0)
(0.029411525 -7.9249026e-07 0)
(0.029530686 7.5065085e-07 0)
(0.029418729 -7.0933119e-07 0)
(0.029523796 6.7147298e-07 0)
(0.029425251 -6.3522009e-07 0)
(0.029517586 6.0154099e-07 0)
(0.029431141 -5.697411e-07 0)
(0.029511989 5.4008442e-07 0)
(0.029436456 -5.1228436e-07 0)
(0.02950694 4.8636387e-07 0)
(0.029441253 -4.6217558e-07 0)
(0.029502379 4.3966831e-07 0)
(0.029445594 -4.187428e-07 0)
(0.029498244 3.9933247e-07 0)
(0.029449539 -3.8135743e-07 0)
(0.029494477 3.6475505e-07 0)
(0.029453143 -3.4945693e-07 0)
(0.029491024 3.3540938e-07 0)
(0.029456459 -3.2255397e-07 0)
(0.029487833 3.1084648e-07 0)
(0.029459537 -3.0023556e-07 0)
(0.029484857 2.9069276e-07 0)
(0.029462421 -2.8216389e-07 0)
(0.029482053 2.7460976e-07 0)
(0.029465157 -2.6815659e-07 0)
(0.029479384 2.6217593e-07 0)
(0.029467799 -2.578568e-07 0)
(0.029476819 2.5517066e-07 0)
(0.029470314 -2.4251784e-07 0)
(0.029473837 2.8138842e-07 0)
(0.029470883 -2.3746387e-07 0)
(0.025094762 0.0050828999 0)
(0.049045383 -0.00018562443 0)
(0.034804801 0.00026621949 0)
(0.037921689 -2.9307865e-05 0)
(0.0360093 4.141379e-05 0)
(0.03570746 -6.9240682e-07 0)
(0.035974149 8.8415308e-06 0)
(0.035371642 2.1867069e-06 0)
(0.035748879 2.4335086e-06 0)
(0.035368203 -5.5222129e-07 0)
(0.035671531 1.4637013e-06 0)
(0.035393593 -1.250154e-06 0)
(0.035644269 1.3407641e-06 0)
(0.035411994 -1.2823015e-06 0)
(0.035628594 1.2508638e-06 0)
(0.035425072 -1.1805662e-06 0)
(0.035616205 1.1301222e-06 0)
(0.035436149 -1.0634212e-06 0)
(0.035605417 1.0103712e-06 0)
(0.035446151 -9.5282636e-07 0)
(0.035595781 9.026553e-07 0)
(0.035455221 -8.5271318e-07 0)
(0.035587117 8.0720513e-07 0)
(0.035463421 -7.6351636e-07 0)
(0.035579315 7.2301511e-07 0)
(0.035470818 -6.8475488e-07 0)
(0.03557229 6.4909678e-07 0)
(0.035477485 -6.1567799e-07 0)
(0.035565959 5.8451893e-07 0)
(0.0354835 -5.5545372e-07 0)
(0.035560242 5.2840049e-07 0)
(0.03548894 -5.0325876e-07 0)
(0.035555061 4.7992726e-07 0)
(0.035493882 -4.5832892e-07 0)
(0.035550342 4.3836983e-07 0)
(0.035498396 -4.1998455e-07 0)
(0.035546016 4.0309304e-07 0)
(0.03550255 -3.8763924e-07 0)
(0.03554202 3.7355726e-07 0)
(0.035506405 -3.6079655e-07 0)
(0.035538294 3.4931435e-07 0)
(0.035510016 -3.3904947e-07 0)
(0.035534783 3.299518e-07 0)
(0.03551344 -3.2219742e-07 0)
(0.035531442 3.1489728e-07 0)
(0.035516745 -3.0986299e-07 0)
(0.035528234 3.064581e-07 0)
(0.035519912 -2.900729e-07 0)
(0.035524594 3.4432265e-07 0)
(0.035520925 -2.8436311e-07 0)
(0.029625976 0.0055287814 0)
(0.055610745 -0.00020598265 0)
(0.04051269 0.00033233014 0)
(0.04411732 -3.6189519e-05 0)
(0.041903959 5.7760592e-05 0)
(0.041582859 -9.8936652e-07 0)
(0.041908898 1.1550299e-05 0)
(0.041205688 3.2360703e-06 0)
(0.041666845 2.8272174e-06 0)
(0.041211876 -4.0988779e-07 0)
(0.041578413 1.640366e-06 0)
(0.041243707 -1.4012704e-06 0)
(0.041546776 1.5303311e-06 0)
(0.041266006 -1.4743384e-06 0)
(0.041528142 1.4434261e-06 0)
(0.041281844 -1.3626786e-06 0)
(0.041513202 1.3065103e-06 0)
(0.041295292 -1.2282088e-06 0)
(0.041500131 1.167616e-06 0)
(0.041307435 -1.1004725e-06 0)
(0.041488452 1.0426912e-06 0)
(0.041318433 -9.8472256e-07 0)
(0.041477956 9.3218774e-07 0)
(0.041328363 -8.8162529e-07 0)
(0.041468516 8.3484946e-07 0)
(0.04133731 -7.9063778e-07 0)
(0.041460023 7.4945898e-07 0)
(0.041345367 -7.1087169e-07 0)
(0.041452374 6.748932e-07 0)
(0.041352632 -6.4134368e-07 0)
(0.04144547 6.1010713e-07 0)
(0.041359202 -5.8108798e-07 0)
(0.041439214 5.541466e-07 0)
(0.041365168 -5.2921467e-07 0)
(0.041433517 5.0616373e-07 0)
(0.041370618 -4.8493655e-07 0)
(0.041428296 4.6542397e-07 0)
(0.041375632 -4.4757668e-07 0)
(0.041423472 4.3130479e-07 0)
(0.041380283 -4.165621e-07 0)
(0.041418977 4.0328994e-07 0)
(0.041384641 -3.9142135e-07 0)
(0.041414741 3.8089695e-07 0)
(0.04138877 -3.7194242e-07 0)
(0.041410711 3.6338696e-07 0)
(0.041392753 -3.577617e-07 0)
(0.041406845 3.5356932e-07 0)
(0.041396589 -3.3346856e-07 0)
(0.041402547 4.0417361e-07 0)
(0.041398126 -3.2660664e-07 0)
(0.033493552 0.0062074442 0)
(0.060967281 -0.0003161812 0)
(0.046234258 0.00039805477 0)
(0.049855126 -4.3928929e-05 0)
(0.047579786 7.4704098e-05 0)
(0.04727189 -1.8221037e-06 0)
(0.047659902 1.4451174e-05 0)
(0.046864114 4.3519892e-06 0)
(0.047411146 3.1561866e-06 0)
(0.046881827 -2.0170868e-07 0)
(0.047312759 1.7762342e-06 0)
(0.046920359 -1.5257564e-06 0)
(0.047276887 1.6954692e-06 0)
(0.046946644 -1.648044e-06 0)
(0.047255274 1.6187148e-06 0)
(0.04696531 -1.5288623e-06 0)
(0.047237729 1.4680362e-06 0)
(0.046981195 -1.3787239e-06 0)
(0.047222322 1.311463e-06 0)
(0.046995532 -1.2353419e-06 0)
(0.047208552 1.1706798e-06 0)
(0.0470085 -1.1053033e-06 0)
(0.04719619 1.0463737e-06 0)
(0.047020194 -9.8951223e-07 0)
(0.04718508 9.3701537e-07 0)
(0.04703072 -8.8736752e-07 0)
(0.047175092 8.4115203e-07 0)
(0.047040193 -7.9784942e-07 0)
(0.047166102 7.5747232e-07 0)
(0.047048731 -7.1983237e-07 0)
(0.047157989 6.8477608e-07 0)
(0.047056449 -6.5221895e-07 0)
(0.047150639 6.2197973e-07 0)
(0.047063458 -5.9400447e-07 0)
(0.047143947 5.6812748e-07 0)
(0.04706986 -5.4430437e-07 0)
(0.047137814 5.2239476e-07 0)
(0.047075749 -5.0235987e-07 0)
(0.047132149 4.8408406e-07 0)
(0.047081212 -4.6752852e-07 0)
(0.047126869 4.5261743e-07 0)
(0.047086328 -4.3927918e-07 0)
(0.047121897 4.2744724e-07 0)
(0.047091174 -4.1739409e-07 0)
(0.047117167 4.0765572e-07 0)
(0.047095846 -4.0155986e-07 0)
(0.047112631 3.9651332e-07 0)
(0.04710036 -3.7280505e-07 0)
(0.047107678 4.605601e-07 0)
(0.04710249 -3.6411432e-07 0)
(0.038799307 0.0068090117 0)
(0.065789032 -0.00035504367 0)
(0.052021943 0.00047972592 0)
(0.055031657 -5.2861649e-05 0)
(0.053040059 9.044246e-05 0)
(0.05277238 -3.0474455e-06 0)
(0.053228286 1.7568941e-05 0)
(0.052347922 5.4955157e-06 0)
(0.052981489 3.4079373e-06 0)
(0.052378405 6.5180131e-08 0)
(0.052874404 1.8697714e-06 0)
(0.052423787 -1.6242118e-06 0)
(0.052834412 1.8356089e-06 0)
(0.052454107 -1.803147e-06 0)
(0.052809808 1.7762338e-06 0)
(0.052475647 -1.6786936e-06 0)
(0.052789622 1.6142397e-06 0)
(0.052494012 -1.5145713e-06 0)
(0.052771845 1.4415313e-06 0)
(0.052510576 -1.3571029e-06 0)
(0.052755959 1.2863124e-06 0)
(0.052525538 -1.2141781e-06 0)
(0.052741708 1.1495061e-06 0)
(0.052539015 -1.0869405e-06 0)
(0.052728911 1.0292923e-06 0)
(0.052551136 -9.7473721e-07 0)
(0.052717414 9.2398151e-07 0)
(0.052562038 -8.7642668e-07 0)
(0.052707069 8.3208167e-07 0)
(0.052571862 -7.9075306e-07 0)
(0.052697735 7.5224876e-07 0)
(0.052580741 -7.1649985e-07 0)
(0.052689281 6.8328189e-07 0)
(0.052588804 -6.5255962e-07 0)
(0.052681583 6.2412858e-07 0)
(0.052596168 -5.9796104e-07 0)
(0.052674528 5.7388399e-07 0)
(0.052602941 -5.5187242e-07 0)
(0.052668013 5.3178366e-07 0)
(0.052609223 -5.1358899e-07 0)
(0.052661942 4.9719444e-07 0)
(0.052615106 -4.8252485e-07 0)
(0.052656226 4.6950895e-07 0)
(0.052620675 -4.5846126e-07 0)
(0.052650789 4.4762184e-07 0)
(0.05262604 -4.411718e-07 0)
(0.052645578 4.3521388e-07 0)
(0.052631238 -4.0807817e-07 0)
(0.052639974 5.1306249e-07 0)
(0.052634018 -3.9681876e-07 0)
(0.042679496 0.0071505808 0)
(0.069598642 -0.00050921302 0)
(0.05767991 0.00054805042 0)
(0.059778585 -5.9679193e-05 0)
(0.058319051 0.00010318367 0)
(0.058072902 -4.9128624e-06 0)
(0.058612859 2.071804e-05 0)
(0.057657499 6.5865463e-06 0)
(0.058377614 3.5744187e-06 0)
(0.057701896 3.8169757e-07 0)
(0.058263198 1.9200287e-06 0)
(0.057754209 -1.6972925e-06 0)
(0.058219177 1.9504276e-06 0)
(0.057788578 -1.9395398e-06 0)
(0.058191581 1.9156938e-06 0)
(0.057813013 -1.8119344e-06 0)
(0.058168736 1.744849e-06 0)
(0.057833879 -1.6355337e-06 0)
(0.058148575 1.5576097e-06 0)
(0.057852684 -1.4655825e-06 0)
(0.058130563 1.3894278e-06 0)
(0.05786965 -1.311208e-06 0)
(0.058114416 1.2414561e-06 0)
(0.057884917 -1.1737938e-06 0)
(0.058099927 1.1115712e-06 0)
(0.057898637 -1.052645e-06 0)
(0.058086916 9.978507e-07 0)
(0.057910973 -9.465114e-07 0)
(0.058075212 8.9863314e-07 0)
(0.057922086 -8.5402107e-07 0)
(0.058064654 8.1244398e-07 0)
(0.05793213 -7.7385241e-07 0)
(0.05805509 7.3797806e-07 0)
(0.05794125 -7.0480781e-07 0)
(0.058046383 6.7409784e-07 0)
(0.057949579 -6.4583994e-07 0)
(0.058038403 6.1982801e-07 0)
(0.057957241 -5.9605312e-07 0)
(0.058031034 5.7434514e-07 0)
(0.057964345 -5.5468741e-07 0)
(0.058024169 5.3696739e-07 0)
(0.057970997 -5.2110714e-07 0)
(0.058017707 5.0703341e-07 0)
(0.057977293 -4.950963e-07 0)
(0.05801156 4.8324523e-07 0)
(0.057983352 -4.7655086e-07 0)
(0.058005671 4.6963665e-07 0)
(0.057989234 -4.3930636e-07 0)
(0.057999424 5.6133763e-07 0)
(0.057992712 -4.2474407e-07 0)
(0.048298885 0.0077311134 0)
(0.073348573 -0.00052577037 0)
(0.062963607 0.0005985336 0)
(0.064252947 -6.6361082e-05 0)
(0.063443743 0.00011228851 0)
(0.063160855 -7.6086908e-06 0)
(0.063813149 2.365034e-05 0)
(0.062794205 7.5697923e-06 0)
(0.063599294 3.6499093e-06 0)
(0.062852583 7.3893007e-07 0)
(0.06347902 1.926539e-06 0)
(0.062911821 -1.7455185e-06 0)
(0.063431023 2.0399074e-06 0)
(0.062950219 -2.0572587e-06 0)
(0.063400447 2.0370329e-06 0)
(0.062977546 -1.928531e-06 0)
(0.063374944 1.8597911e-06 0)
(0.063000915 -1.7415699e-06 0)
(0.0633524 1.6596591e-06 0)
(0.06302196 -1.5607637e-06 0)
(0.063332266 1.4800129e-06 0)
(0.063040926 -1.3963889e-06 0)
(0.063314229 1.3222218e-06 0)
(0.063057976 -1.2500722e-06 0)
(0.063298054 1.1838524e-06 0)
(0.063073291 -1.1210905e-06 0)
(0.063283534 1.0627587e-06 0)
(0.063087057 -1.0081011e-06 0)
(0.063270474 9.5712366e-07 0)
(0.063099456 -9.0963194e-07 0)
(0.063258694 8.653568e-07 0)
(0.063110662 -8.2427078e-07 0)
(0.063248024 7.8606222e-07 0)
(0.063120838 -7.5074261e-07 0)
(0.063238308 7.1802893e-07 0)
(0.063130131 -6.8793475e-07 0)
(0.063229405 6.6022084e-07 0)
(0.063138678 -6.3489629e-07 0)
(0.063221185 6.1176336e-07 0)
(0.063146604 -5.9081914e-07 0)
(0.063213527 5.7193223e-07 0)
(0.063154023 -5.5502285e-07 0)
(0.06320632 5.4001826e-07 0)
(0.063161043 -5.2729688e-07 0)
(0.063199465 5.1452937e-07 0)
(0.063167795 -5.0769231e-07 0)
(0.0631929 4.997914e-07 0)
(0.063174356 -4.6653776e-07 0)
(0.063186019 6.0511925e-07 0)
(0.06317857 -4.4799071e-07 0)
(0.052148297 0.0079612427 0)
(0.076277343 -0.00069517407 0)
(0.068039792 0.00065287942 0)
(0.068581539 -6.7431192e-05 0)
(0.068429589 0.00011833811 0)
(0.068041151 -1.0667835e-05 0)
(0.068831685 2.6145786e-05 0)
(0.06775903 8.3874432e-06 0)
(0.06864642 3.6366459e-06 0)
(0.067830684 1.1272509e-06 0)
(0.068521773 1.8894664e-06 0)
(0.067896803 -1.7691728e-06 0)
(0.068469807 2.1042503e-06 0)
(0.067939176 -2.1564433e-06 0)
(0.068436275 2.1403317e-06 0)
(0.067969371 -2.0285539e-06 0)
(0.068408131 1.9591152e-06 0)
(0.067995228 -1.8327517e-06 0)
(0.068383222 1.747744e-06 0)
(0.068018496 -1.6427247e-06 0)
(0.068360984 1.5581404e-06 0)
(0.068039445 -1.4697965e-06 0)
(0.068341074 1.391873e-06 0)
(0.068058264 -1.3158435e-06 0)
(0.068323226 1.2461983e-06 0)
(0.068075161 -1.1801322e-06 0)
(0.068307209 1.1187592e-06 0)
(0.068090345 -1.0612453e-06 0)
(0.068292804 1.0075988e-06 0)
(0.06810402 -9.5762762e-07 0)
(0.068279811 9.1102618e-07 0)
(0.06811638 -8.6779109e-07 0)
(0.068268043 8.2756833e-07 0)
(0.068127603 -7.9039583e-07 0)
(0.068257327 7.5595219e-07 0)
(0.068137853 -7.2427423e-07 0)
(0.068247507 6.9509023e-07 0)
(0.06814728 -6.6842857e-07 0)
(0.06823844 6.4406431e-07 0)
(0.068156021 -6.2200947e-07 0)
(0.068229995 6.0211392e-07 0)
(0.068164202 -5.8429672e-07 0)
(0.068222049 5.6848824e-07 0)
(0.068171941 -5.5508715e-07 0)
(0.068214492 5.4150312e-07 0)
(0.068179379 -5.3461596e-07 0)
(0.068207255 5.2571431e-07 0)
(0.068186613 -4.898359e-07 0)
(0.06819975 6.4419993e-07 0)
(0.068191591 -4.6671006e-07 0)
(0.057752227 0.0083637382 0)
(0.079260432 -0.00071925166 0)
(0.072891507 0.00070033155 0)
(0.072764541 -7.0690486e-05 0)
(0.073259658 0.00012069024 0)
(0.07272963 -1.3826339e-05 0)
(0.073671967 2.8021288e-05 0)
(0.07255331 9.0141988e-06 0)
(0.073518962 3.5470049e-06 0)
(0.072636383 1.5388583e-06 0)
(0.07339139 1.8097064e-06 0)
(0.072709316 -1.7679951e-06 0)
(0.073335404 2.1439492e-06 0)
(0.072755572 -2.2372732e-06 0)
(0.073298949 2.2257938e-06 0)
(0.072788595 -2.1121705e-06 0)
(0.073268199 2.0429665e-06 0)
(0.072816909 -1.9092363e-06 0)
(0.073240956 1.8220087e-06 0)
(0.072842372 -1.7116132e-06 0)
(0.073216643 1.623948e-06 0)
(0.072865277 -1.5315636e-06 0)
(0.073194884 1.450534e-06 0)
(0.072885842 -1.3712239e-06 0)
(0.073175386 1.2987174e-06 0)
(0.072904299 -1.2298704e-06 0)
(0.073157891 1.1659458e-06 0)
(0.072920883 -1.1060309e-06 0)
(0.073142158 1.0501398e-06 0)
(0.072935819 -9.9808394e-07 0)
(0.073127967 9.4952358e-07 0)
(0.072949319 -9.0448042e-07 0)
(0.073115113 8.6256e-07 0)
(0.072961577 -8.2382771e-07 0)
(0.073103408 7.8792508e-07 0)
(0.072972773 -7.5491324e-07 0)
(0.073092682 7.2448892e-07 0)
(0.07298307 -6.9670068e-07 0)
(0.07308278 6.7129711e-07 0)
(0.072992616 -6.4830604e-07 0)
(0.073073557 6.2755884e-07 0)
(0.07300155 -6.0897434e-07 0)
(0.07306488 5.9248807e-07 0)
(0.07301 -5.7851093e-07 0)
(0.073056629 5.6421393e-07 0)
(0.073018114 -5.5735982e-07 0)
(0.073048728 5.4746073e-07 0)
(0.073026011 -5.0927454e-07 0)
(0.073040611 6.7842251e-07 0)
(0.073031776 -4.8109005e-07 0)
(0.062015577 0.0086034891 0)
(0.081602468 -0.00089199541 0)
(0.0776288 0.0007342767 0)
(0.076803239 -7.2661025e-05 0)
(0.077922584 0.00011992702 0)
(0.077247762 -1.689803e-05 0)
(0.078337977 2.9245822e-05 0)
(0.07717811 9.4417288e-06 0)
(0.078216907 3.3946814e-06 0)
(0.077269794 1.9642793e-06 0)
(0.078087817 1.6875865e-06 0)
(0.077349504 -1.7414647e-06 0)
(0.078027705 2.1597098e-06 0)
(0.077399516 -2.2999807e-06 0)
(0.07798837 2.2937343e-06 0)
(0.077435309 -2.1796329e-06 0)
(0.077955061 2.111575e-06 0)
(0.077466039 -1.9712561e-06 0)
(0.077925526 1.882665e-06 0)
(0.077493658 -1.7676391e-06 0)
(0.077899176 1.6776289e-06 0)
(0.077518484 -1.5818747e-06 0)
(0.077875602 1.4983754e-06 0)
(0.077540763 -1.4163739e-06 0)
(0.077854483 1.3415586e-06 0)
(0.077560755 -1.2704447e-06 0)
(0.077835534 1.2044488e-06 0)
(0.077578715 -1.1425798e-06 0)
(0.077818496 1.0848614e-06 0)
(0.077594891 -1.0311085e-06 0)
(0.077803126 9.8095064e-07 0)
(0.077609512 -9.3443481e-07 0)
(0.077789204 8.9112853e-07 0)
(0.077622789 -8.5112495e-07 0)
(0.077776526 8.1403057e-07 0)
(0.077634916 -7.7993099e-07 0)
(0.077764909 7.4849309e-07 0)
(0.077646068 -7.197858e-07 0)
(0.077754184 6.9353251e-07 0)
(0.077656406 -6.6977723e-07 0)
(0.077744196 6.483335e-07 0)
(0.07766608 -6.2912059e-07 0)
(0.077734801 6.1208117e-07 0)
(0.077675229 -5.976303e-07 0)
(0.077725867 5.827265e-07 0)
(0.077684009 -5.7597882e-07 0)
(0.077717311 5.6510326e-07 0)
(0.077692556 -5.2493735e-07 0)
(0.077708598 7.0767619e-07 0)
(0.077699121 -4.9134584e-07 0)
(0.067832731 0.0088621502 0)
(0.084156866 -0.00090615397 0)
(0.082228167 0.00076314013 0)
(0.080689365 -7.5352652e-05 0)
(0.082411265 0.00011612811 0)
(0.081608417 -1.99985e-05 0)
(0.08283097 2.9817089e-05 0)
(0.081634411 9.6689685e-06 0)
(0.082740157 3.2020083e-06 0)
(0.081731012 2.3953127e-06 0)
(0.082610986 1.5231885e-06 0)
(0.081817492 -1.6887104e-06 0)
(0.082546621 2.152468e-06 0)
(0.081871102 -2.3448258e-06 0)
(0.082504452 2.3445665e-06 0)
(0.081909594 -2.2312706e-06 0)
(0.082468642 2.165242e-06 0)
(0.081942686 -2.0191105e-06 0)
(0.082436868 1.9299837e-06 0)
(0.081972414 -1.8110654e-06 0)
(0.082408526 1.7194251e-06 0)
(0.081999119 -1.6209588e-06 0)
(0.082383177 1.53561e-06 0)
(0.082023076 -1.4514925e-06 0)
(0.082360471 1.3749083e-06 0)
(0.082044569 -1.3020291e-06 0)
(0.082340101 1.2344319e-06 0)
(0.082063878 -1.1710455e-06 0)
(0.082321783 1.1119082e-06 0)
(0.082081268 -1.0568379e-06 0)
(0.082305259 1.0054369e-06 0)
(0.082096987 -9.5777694e-07 0)
(0.08229029 9.1339075e-07 0)
(0.082111263 -8.7239882e-07 0)
(0.082276659 8.3437501e-07 0)
(0.082124301 -7.9942929e-07 0)
(0.082264168 7.672005e-07 0)
(0.082136291 -7.3777792e-07 0)
(0.082252637 7.1086122e-07 0)
(0.082147407 -6.8651071e-07 0)
(0.082241899 6.6452293e-07 0)
(0.082157806 -6.4481832e-07 0)
(0.0822318 6.2734824e-07 0)
(0.08216764 -6.125243e-07 0)
(0.082222198 5.9712141e-07 0)
(0.082177071 -5.9054381e-07 0)
(0.082213 5.7873009e-07 0)
(0.082186253 -5.3691765e-07 0)
(0.082203705 7.3189302e-07 0)
(0.082193626 -4.9771177e-07 0)
(0.072477388 0.0089996606 0)
(0.086200395 -0.0010814949 0)
(0.086732497 0.00077677878 0)
(0.084444079 -7.625503e-05 0)
(0.086727496 0.00010937207 0)
(0.085817306 -2.3133158e-05 0)
(0.087151826 2.9839898e-05 0)
(0.085923025 9.7177895e-06 0)
(0.087088461 2.9927644e-06 0)
(0.086020296 2.8242549e-06 0)
(0.086960786 1.3166804e-06 0)
(0.08611338 -1.6087276e-06 0)
(0.086892073 2.1233664e-06 0)
(0.086170407 -2.3720742e-06 0)
(0.086847121 2.3787875e-06 0)
(0.086211517 -2.2674727e-06 0)
(0.086808877 2.2043272e-06 0)
(0.08624691 -2.0531525e-06 0)
(0.086774926 1.9642833e-06 0)
(0.086278693 -1.8422003e-06 0)
(0.086744644 1.749619e-06 0)
(0.08630723 -1.6490834e-06 0)
(0.086717565 1.562486e-06 0)
(0.086332822 -1.4768134e-06 0)
(0.086693312 1.3989845e-06 0)
(0.08635578 -1.3248289e-06 0)
(0.086671554 1.2560877e-06 0)
(0.086376403 -1.1916097e-06 0)
(0.086651989 1.1314521e-06 0)
(0.086394979 -1.0754346e-06 0)
(0.086634338 1.0231364e-06 0)
(0.08641177 -9.746532e-07 0)
(0.086618348 9.2948615e-07 0)
(0.086427019 -8.8778227e-07 0)
(0.086603787 8.4908566e-07 0)
(0.086440948 -8.1352985e-07 0)
(0.086590443 7.8072811e-07 0)
(0.086453756 -7.5078939e-07 0)
(0.086578125 7.2339168e-07 0)
(0.086465629 -6.9861117e-07 0)
(0.086566655 6.7622861e-07 0)
(0.086476737 -6.5616621e-07 0)
(0.086555869 6.3838532e-07 0)
(0.086487239 -6.2328694e-07 0)
(0.086545614 6.0749336e-07 0)
(0.086497306 -6.0113979e-07 0)
(0.086535789 5.8844289e-07 0)
(0.086507104 -5.4531755e-07 0)
(0.08652593 7.5104416e-07 0)
(0.086515288 -5.0043428e-07 0)
(0.078557573 0.0091855798 0)
(0.08860044 -0.001070602 0)
(0.091065787 0.00078976382 0)
(0.088112183 -7.7122185e-05 0)
(0.090878405 9.9810204e-05 0)
(0.089874046 -2.6308736e-05 0)
(0.09130064 2.9404452e-05 0)
(0.090043918 9.6025142e-06 0)
(0.091261147 2.7874512e-06 0)
(0.090138319 3.2390537e-06 0)
(0.091137026 1.0706021e-06 0)
(0.090237253 -1.5011056e-06 0)
(0.091063996 2.0736587e-06 0)
(0.090297498 -2.3820267e-06 0)
(0.091016314 2.3969509e-06 0)
(0.090341135 -2.288682e-06 0)
(0.090975712 2.2292362e-06 0)
(0.090378763 -2.0737806e-06 0)
(0.090939649 1.985921e-06 0)
(0.090412541 -1.8613889e-06 0)
(0.090907486 1.7685271e-06 0)
(0.090442857 -1.6665481e-06 0)
(0.090878727 1.5792822e-06 0)
(0.090470038 -1.4925985e-06 0)
(0.090852972 1.4140334e-06 0)
(0.090494418 -1.3390754e-06 0)
(0.090829865 1.2696347e-06 0)
(0.09051632 -1.2044786e-06 0)
(0.090809087 1.1436883e-06 0)
(0.090536048 -1.0870835e-06 0)
(0.090790341 1.034225e-06 0)
(0.090553881 -9.8523074e-07 0)
(0.090773357 9.3957417e-07 0)
(0.090570078 -8.9742739e-07 0)
(0.090757891 8.5830802e-07 0)
(0.090584872 -8.2237201e-07 0)
(0.090743718 7.8920969e-07 0)
(0.090598476 -7.5894884e-07 0)
(0.090730635 7.3124786e-07 0)
(0.090611086 -7.0619832e-07 0)
(0.090718454 6.8356648e-07 0)
(0.090622883 -6.6327696e-07 0)
(0.090707 6.4530191e-07 0)
(0.090634034 -6.3002551e-07 0)
(0.09069611 6.1394937e-07 0)
(0.090644718 -6.0786446e-07 0)
(0.090685674 5.943549e-07 0)
(0.090655115 -5.5024705e-07 0)
(0.09067527 7.6513622e-07 0)
(0.090664105 -4.9976596e-07 0)
(0.08340671 0.0092435237 0)
(0.090497005 -0.0012451239 0)
(0.09517655 0.00078323988 0)
(0.091753451 -7.5663465e-05 0)
(0.094875522 8.8378485e-05 0)
(0.093776602 -2.9405416e-05 0)
(0.095277884 2.8615174e-05 0)
(0.093996615 9.3541424e-06 0)
(0.095257444 2.6071634e-06 0)
(0.094086106 3.622467e-06 0)
(0.095139438 7.9216508e-07 0)
(0.09418918 -1.3668855e-06 0)
(0.095062337 2.0045479e-06 0)
(0.094252432 -2.3750623e-06 0)
(0.095011979 2.3996326e-06 0)
(0.0942985 -2.2953897e-06 0)
(0.0949691 2.2404074e-06 0)
(0.094338289 -2.0814295e-06 0)
(0.094930998 1.9952861e-06 0)
(0.094373998 -1.8690068e-06 0)
(0.094897015 1.7764943e-06 0)
(0.094406035 -1.6736802e-06 0)
(0.09486663 1.5863032e-06 0)
(0.094434754 -1.4991357e-06 0)
(0.09483942 1.4203251e-06 0)
(0.094460513 -1.3450239e-06 0)
(0.094815008 1.2753139e-06 0)
(0.094483653 -1.2098802e-06 0)
(0.094793054 1.1488327e-06 0)
(0.094504497 -1.0919896e-06 0)
(0.094773246 1.0388977e-06 0)
(0.09452334 -9.8969499e-07 0)
(0.094755301 9.4383168e-07 0)
(0.094540454 -9.0150297e-07 0)
(0.094738958 8.6220362e-07 0)
(0.094556086 -8.2611041e-07 0)
(0.094723982 7.9279377e-07 0)
(0.094570461 -7.6239894e-07 0)
(0.094710158 7.3456734e-07 0)
(0.094583786 -7.0940492e-07 0)
(0.094697287 6.8666511e-07 0)
(0.094596249 -6.6627541e-07 0)
(0.094685185 6.4821933e-07 0)
(0.09460803 -6.3285877e-07 0)
(0.094673682 6.1660719e-07 0)
(0.094619312 -6.1082659e-07 0)
(0.094662653 5.9658918e-07 0)
(0.094630287 -5.5182313e-07 0)
(0.094651721 7.7420796e-07 0)
(0.094640075 -4.9596061e-07 0)
(0.089210933 0.009288197 0)
(0.092863514 -0.0012140647 0)
(0.099024711 0.00077714362 0)
(0.095383698 -7.4032075e-05 0)
(0.09871869 7.5829304e-05 0)
(0.09752301 -3.2292489e-05 0)
(0.099084039 2.7567078e-05 0)
(0.097780272 9.0068263e-06 0)
(0.099077122 2.4638131e-06 0)
(0.097864384 3.9579573e-06 0)
(0.098967695 4.9432788e-07 0)
(0.097969176 -1.2086971e-06 0)
(0.098887047 1.9171715e-06 0)
(0.098035256 -2.3515959e-06 0)
(0.098834072 2.3874291e-06 0)
(0.098083652 -2.2881274e-06 0)
(0.098789 2.2383042e-06 0)
(0.098125526 -2.0765655e-06 0)
(0.098748934 1.9927928e-06 0)
(0.098163098 -1.8654562e-06 0)
(0.098713198 1.7738894e-06 0)
(0.098196796 -1.6708302e-06 0)
(0.098681246 1.5838765e-06 0)
(0.098226999 -1.4967342e-06 0)
(0.098652631 1.4181508e-06 0)
(0.098254087 -1.3429496e-06 0)
(0.098626959 1.2733855e-06 0)
(0.098278423 -1.2080608e-06 0)
(0.09860387 1.1471196e-06 0)
(0.098300344 -1.090375e-06 0)
(0.098583039 1.0373659e-06 0)
(0.098320162 -9.8824722e-07 0)
(0.098564164 9.4245075e-07 0)
(0.098338162 -9.0019239e-07 0)
(0.098546975 8.6094794e-07 0)
(0.098354603 -8.2491312e-07 0)
(0.098531224 7.9164164e-07 0)
(0.098369723 -7.6129477e-07 0)
(0.098516684 7.334995e-07 0)
(0.098383736 -7.0837518e-07 0)
(0.098503147 6.8566406e-07 0)
(0.098396844 -6.6529705e-07 0)
(0.098490421 6.4726914e-07 0)
(0.098409233 -6.3191558e-07 0)
(0.098478324 6.1559393e-07 0)
(0.098421091 -6.1014487e-07 0)
(0.098466722 5.9527715e-07 0)
(0.098432622 -5.5016894e-07 0)
(0.098455284 7.7832724e-07 0)
(0.098443195 -4.8926926e-07 0)
(0.094164074 0.0093282116 0)
(0.094837971 -0.0013680176 0)
(0.10264019 0.00075043388 0)
(0.09896348 -7.26635e-05 0)
(0.10240126 6.2843131e-05 0)
(0.10111014 -3.4927538e-05 0)
(0.10271874 2.6315887e-05 0)
(0.10139398 8.5879458e-06 0)
(0.10272062 2.3545362e-06 0)
(0.10147324 4.2329167e-06 0)
(0.10262151 1.9336549e-07 0)